 Entering Gaussian System, Link 0=/homes/huanglei/prog/g09/g09
 Initial command:
 /homes/huanglei/prog/g09/l1.exe /scratch/1867310.bmgt1.lcrc.anl.gov/Gau-15200.inp -scrdir=/scratch/1867310.bmgt1.lcrc.anl.gov/
 Entering Link 1 = /homes/huanglei/prog/g09/l1.exe PID=     15201.
  
 Copyright (c) 1988,1990,1992,1993,1995,1998,2003,2009, Gaussian, Inc.
                  All Rights Reserved.
  
 This is part of the Gaussian(R) 09 program.  It is based on
 the Gaussian(R) 03 system (copyright 2003, Gaussian, Inc.),
 the Gaussian(R) 98 system (copyright 1998, Gaussian, Inc.),
 the Gaussian(R) 94 system (copyright 1995, Gaussian, Inc.),
 the Gaussian 92(TM) system (copyright 1992, Gaussian, Inc.),
 the Gaussian 90(TM) system (copyright 1990, Gaussian, Inc.),
 the Gaussian 88(TM) system (copyright 1988, Gaussian, Inc.),
 the Gaussian 86(TM) system (copyright 1986, Carnegie Mellon
 University), and the Gaussian 82(TM) system (copyright 1983,
 Carnegie Mellon University). Gaussian is a federally registered
 trademark of Gaussian, Inc.
  
 This software contains proprietary and confidential information,
 including trade secrets, belonging to Gaussian, Inc.
  
 This software is provided under written license and may be
 used, copied, transmitted, or stored only in accord with that
 written license.
  
 The following legend is applicable only to US Government
 contracts under FAR:
  
                    RESTRICTED RIGHTS LEGEND
  
 Use, reproduction and disclosure by the US Government is
 subject to restrictions as set forth in subparagraphs (a)
 and (c) of the Commercial Computer Software - Restricted
 Rights clause in FAR 52.227-19.
  
 Gaussian, Inc.
 340 Quinnipiac St., Bldg. 40, Wallingford CT 06492
  
  
 ---------------------------------------------------------------
 Warning -- This program may not be used in any manner that
 competes with the business of Gaussian, Inc. or will provide
 assistance to any competitor of Gaussian, Inc.  The licensee
 of this program is prohibited from giving any competitor of
 Gaussian, Inc. access to this program.  By using this program,
 the user acknowledges that Gaussian, Inc. is engaged in the
 business of creating and licensing software in the field of
 computational chemistry and represents and warrants to the
 licensee that it is not a competitor of Gaussian, Inc. and that
 it will not use this program in any manner prohibited above.
 ---------------------------------------------------------------
  

 Cite this work as:
 Gaussian 09, Revision A.02,
 M. J. Frisch, G. W. Trucks, H. B. Schlegel, G. E. Scuseria, 
 M. A. Robb, J. R. Cheeseman, G. Scalmani, V. Barone, B. Mennucci, 
 G. A. Petersson, H. Nakatsuji, M. Caricato, X. Li, H. P. Hratchian, 
 A. F. Izmaylov, J. Bloino, G. Zheng, J. L. Sonnenberg, M. Hada, 
 M. Ehara, K. Toyota, R. Fukuda, J. Hasegawa, M. Ishida, T. Nakajima, 
 Y. Honda, O. Kitao, H. Nakai, T. Vreven, J. A. Montgomery, Jr., 
 J. E. Peralta, F. Ogliaro, M. Bearpark, J. J. Heyd, E. Brothers, 
 K. N. Kudin, V. N. Staroverov, R. Kobayashi, J. Normand, 
 K. Raghavachari, A. Rendell, J. C. Burant, S. S. Iyengar, J. Tomasi, 
 M. Cossi, N. Rega, J. M. Millam, M. Klene, J. E. Knox, J. B. Cross, 
 V. Bakken, C. Adamo, J. Jaramillo, R. Gomperts, R. E. Stratmann, 
 O. Yazyev, A. J. Austin, R. Cammi, C. Pomelli, J. W. Ochterski, 
 R. L. Martin, K. Morokuma, V. G. Zakrzewski, G. A. Voth, 
 P. Salvador, J. J. Dannenberg, S. Dapprich, A. D. Daniels, 
 O. Farkas, J. B. Foresman, J. V. Ortiz, J. Cioslowski, 
 and D. J. Fox, Gaussian, Inc., Wallingford CT, 2009.
 
 ******************************************
 Gaussian 09:  EM64L-G09RevA.02 11-Jun-2009
                28-Mar-2018 
 ******************************************
 %mem=1GB
 ----------
 # opt ram1
 ----------
 1/14=-1,18=20,19=15,26=1,38=1/1,3;
 2/9=110,12=2,17=6,18=5,40=1/2;
 3/5=2,16=1,25=1,41=700000,71=1,116=1/1,2,3;
 4/35=1/1;
 5/5=2,35=1,38=5/2;
 6/7=2,8=2,9=2,10=2,28=1/1;
 7//1,2,3,16;
 1/14=-1,18=20,19=15/3(2);
 2/9=110/2;
 99//99;
 2/9=110/2;
 3/5=2,16=1,25=1,41=700000,71=1,116=1,135=20/1,2,3;
 4/5=5,16=3,35=1/1;
 5/5=2,35=1,38=5/2;
 7//1,2,3,16;
 1/14=-1,18=20,19=15/3(-5);
 2/9=110/2;
 6/7=2,8=2,9=2,10=2,19=2,28=1/1;
 99/9=1/99;
 ---
 Mol
 ---
 Symbolic Z-matrix:
 Charge =  0 Multiplicity = 1
 N                     1.374    -8.619     25.826 
 N                     3.184    -7.908     24.531 
 N                    -2.118    -4.412     29.331 
 N                    -3.42     -6.308     29.667 
 N                    -6.043    -11.32     29.464 
 N                    -1.424    -6.504     28.372 
 C                    -0.433    -9.244     27.246 
 C                     0.48     -8.171     26.688 
 C                     2.165    -7.681     25.401 
 C                     0.514    -6.785     26.953 
 C                    -0.353    -5.898     27.8 
 C                    -0.122    -4.528     27.98 
 C                    -1.037    -3.821     28.761 
 C                    -2.276    -5.738     29.099 
 C                    -4.016    -7.58      29.584 
 C                    -3.741    -8.506     28.573 
 C                    -4.405    -9.73      28.532 
 C                    -5.361    -10.07     29.501 
 C                    -5.884    -12.235    28.329 
 C                    -7.216    -11.543    30.309 
 C                    -5.623    -9.132     30.513 
 C                    -4.966    -7.906     30.549 
 S                     1.859    -6.113     26.05 
 H                    -0.77     -9.02      28.257 
 H                     0.05     -10.22     27.307 
 H                    -1.319    -9.371     26.623 
 H                     3.698    -7.143     24.091 
 H                     3.186    -8.768     24.007 
 H                    -3.891    -5.67      30.295 
 H                     0.721    -4.024     27.533 
 H                    -0.914    -2.76      28.931 
 H                    -3.04     -8.294     27.786 
 H                    -4.163    -10.39     27.714 
 H                    -6.208    -13.244    28.588 
 H                    -4.846    -12.322    28.006 
 H                    -6.471    -11.903    27.473 
 H                    -7.548    -12.581    30.272 
 H                    -8.04     -10.909    29.979 
 H                    -7.012    -11.309    31.354 
 H                    -6.352    -9.318     31.285 
 H                    -5.212    -7.2       31.33 
 

 GradGradGradGradGradGradGradGradGradGradGradGradGradGradGradGradGradGrad
 Berny optimization.
 Initialization pass.
                           ----------------------------
                           !    Initial Parameters    !
                           ! (Angstroms and Degrees)  !
 --------------------------                            --------------------------
 ! Name  Definition              Value          Derivative Info.                !
 --------------------------------------------------------------------------------
 ! R1    R(1,8)                  1.3202         estimate D2E/DX2                !
 ! R2    R(1,9)                  1.2985         estimate D2E/DX2                !
 ! R3    R(2,9)                  1.359          estimate D2E/DX2                !
 ! R4    R(2,27)                 1.0213         estimate D2E/DX2                !
 ! R5    R(2,28)                 1.0071         estimate D2E/DX2                !
 ! R6    R(3,13)                 1.3575         estimate D2E/DX2                !
 ! R7    R(3,14)                 1.3554         estimate D2E/DX2                !
 ! R8    R(4,14)                 1.3987         estimate D2E/DX2                !
 ! R9    R(4,15)                 1.4072         estimate D2E/DX2                !
 ! R10   R(4,29)                 1.0116         estimate D2E/DX2                !
 ! R11   R(5,18)                 1.4244         estimate D2E/DX2                !
 ! R12   R(5,19)                 1.4665         estimate D2E/DX2                !
 ! R13   R(5,20)                 1.4628         estimate D2E/DX2                !
 ! R14   R(6,11)                 1.357          estimate D2E/DX2                !
 ! R15   R(6,14)                 1.3569         estimate D2E/DX2                !
 ! R16   R(7,8)                  1.5153         estimate D2E/DX2                !
 ! R17   R(7,24)                 1.089          estimate D2E/DX2                !
 ! R18   R(7,25)                 1.0907         estimate D2E/DX2                !
 ! R19   R(7,26)                 1.0905         estimate D2E/DX2                !
 ! R20   R(8,10)                 1.4115         estimate D2E/DX2                !
 ! R21   R(9,23)                 1.7244         estimate D2E/DX2                !
 ! R22   R(10,11)                1.502          estimate D2E/DX2                !
 ! R23   R(10,23)                1.7539         estimate D2E/DX2                !
 ! R24   R(11,12)                1.401          estimate D2E/DX2                !
 ! R25   R(12,13)                1.3954         estimate D2E/DX2                !
 ! R26   R(12,30)                1.0791         estimate D2E/DX2                !
 ! R27   R(13,31)                1.0815         estimate D2E/DX2                !
 ! R28   R(15,16)                1.3983         estimate D2E/DX2                !
 ! R29   R(15,22)                1.3928         estimate D2E/DX2                !
 ! R30   R(16,17)                1.3931         estimate D2E/DX2                !
 ! R31   R(16,32)                1.075          estimate D2E/DX2                !
 ! R32   R(17,18)                1.403          estimate D2E/DX2                !
 ! R33   R(17,33)                1.0786         estimate D2E/DX2                !
 ! R34   R(18,21)                1.4045         estimate D2E/DX2                !
 ! R35   R(19,34)                1.0909         estimate D2E/DX2                !
 ! R36   R(19,35)                1.0906         estimate D2E/DX2                !
 ! R37   R(19,36)                1.0897         estimate D2E/DX2                !
 ! R38   R(20,37)                1.0904         estimate D2E/DX2                !
 ! R39   R(20,38)                1.0908         estimate D2E/DX2                !
 ! R40   R(20,39)                1.0901         estimate D2E/DX2                !
 ! R41   R(21,22)                1.3914         estimate D2E/DX2                !
 ! R42   R(21,40)                1.078          estimate D2E/DX2                !
 ! R43   R(22,41)                1.0812         estimate D2E/DX2                !
 ! A1    A(8,1,9)              112.4            estimate D2E/DX2                !
 ! A2    A(9,2,27)             121.8755         estimate D2E/DX2                !
 ! A3    A(9,2,28)             118.5054         estimate D2E/DX2                !
 ! A4    A(27,2,28)            114.4878         estimate D2E/DX2                !
 ! A5    A(13,3,14)            116.544          estimate D2E/DX2                !
 ! A6    A(14,4,15)            133.6987         estimate D2E/DX2                !
 ! A7    A(14,4,29)            112.0812         estimate D2E/DX2                !
 ! A8    A(15,4,29)            114.1755         estimate D2E/DX2                !
 ! A9    A(18,5,19)            121.045          estimate D2E/DX2                !
 ! A10   A(18,5,20)            120.1802         estimate D2E/DX2                !
 ! A11   A(19,5,20)            116.034          estimate D2E/DX2                !
 ! A12   A(11,6,14)            117.9891         estimate D2E/DX2                !
 ! A13   A(8,7,24)             112.499          estimate D2E/DX2                !
 ! A14   A(8,7,25)             112.7939         estimate D2E/DX2                !
 ! A15   A(8,7,26)             111.1986         estimate D2E/DX2                !
 ! A16   A(24,7,25)            105.6161         estimate D2E/DX2                !
 ! A17   A(24,7,26)            107.6322         estimate D2E/DX2                !
 ! A18   A(25,7,26)            106.7099         estimate D2E/DX2                !
 ! A19   A(1,8,7)              114.0879         estimate D2E/DX2                !
 ! A20   A(1,8,10)             116.0702         estimate D2E/DX2                !
 ! A21   A(7,8,10)             129.8419         estimate D2E/DX2                !
 ! A22   A(1,9,2)              123.0681         estimate D2E/DX2                !
 ! A23   A(1,9,23)             115.1869         estimate D2E/DX2                !
 ! A24   A(2,9,23)             121.729          estimate D2E/DX2                !
 ! A25   A(8,10,11)            132.2106         estimate D2E/DX2                !
 ! A26   A(8,10,23)            107.3399         estimate D2E/DX2                !
 ! A27   A(11,10,23)           120.4477         estimate D2E/DX2                !
 ! A28   A(6,11,10)            115.4399         estimate D2E/DX2                !
 ! A29   A(6,11,12)            120.8428         estimate D2E/DX2                !
 ! A30   A(10,11,12)           123.6964         estimate D2E/DX2                !
 ! A31   A(11,12,13)           117.3403         estimate D2E/DX2                !
 ! A32   A(11,12,30)           122.1625         estimate D2E/DX2                !
 ! A33   A(13,12,30)           120.4956         estimate D2E/DX2                !
 ! A34   A(3,13,12)            122.4538         estimate D2E/DX2                !
 ! A35   A(3,13,31)            116.8501         estimate D2E/DX2                !
 ! A36   A(12,13,31)           120.694          estimate D2E/DX2                !
 ! A37   A(3,14,4)             115.121          estimate D2E/DX2                !
 ! A38   A(3,14,6)             124.8057         estimate D2E/DX2                !
 ! A39   A(4,14,6)             120.0725         estimate D2E/DX2                !
 ! A40   A(4,15,16)            123.916          estimate D2E/DX2                !
 ! A41   A(4,15,22)            117.3609         estimate D2E/DX2                !
 ! A42   A(16,15,22)           118.6902         estimate D2E/DX2                !
 ! A43   A(15,16,17)           120.6231         estimate D2E/DX2                !
 ! A44   A(15,16,32)           121.7995         estimate D2E/DX2                !
 ! A45   A(17,16,32)           117.5495         estimate D2E/DX2                !
 ! A46   A(16,17,18)           121.1552         estimate D2E/DX2                !
 ! A47   A(16,17,33)           116.9378         estimate D2E/DX2                !
 ! A48   A(18,17,33)           121.8971         estimate D2E/DX2                !
 ! A49   A(5,18,17)            121.3964         estimate D2E/DX2                !
 ! A50   A(5,18,21)            121.029          estimate D2E/DX2                !
 ! A51   A(17,18,21)           117.5746         estimate D2E/DX2                !
 ! A52   A(5,19,34)            111.169          estimate D2E/DX2                !
 ! A53   A(5,19,35)            112.4691         estimate D2E/DX2                !
 ! A54   A(5,19,36)            111.0662         estimate D2E/DX2                !
 ! A55   A(34,19,35)           106.213          estimate D2E/DX2                !
 ! A56   A(34,19,36)           107.9561         estimate D2E/DX2                !
 ! A57   A(35,19,36)           107.7192         estimate D2E/DX2                !
 ! A58   A(5,20,37)            111.6955         estimate D2E/DX2                !
 ! A59   A(5,20,38)            110.023          estimate D2E/DX2                !
 ! A60   A(5,20,39)            111.7753         estimate D2E/DX2                !
 ! A61   A(37,20,38)           108.2412         estimate D2E/DX2                !
 ! A62   A(37,20,39)           107.0876         estimate D2E/DX2                !
 ! A63   A(38,20,39)           107.8548         estimate D2E/DX2                !
 ! A64   A(18,21,22)           121.2664         estimate D2E/DX2                !
 ! A65   A(18,21,40)           121.7989         estimate D2E/DX2                !
 ! A66   A(22,21,40)           116.9253         estimate D2E/DX2                !
 ! A67   A(15,22,21)           120.6879         estimate D2E/DX2                !
 ! A68   A(15,22,41)           120.1876         estimate D2E/DX2                !
 ! A69   A(21,22,41)           119.119          estimate D2E/DX2                !
 ! A70   A(9,23,10)             88.9375         estimate D2E/DX2                !
 ! D1    D(9,1,8,7)           -177.9733         estimate D2E/DX2                !
 ! D2    D(9,1,8,10)             1.9485         estimate D2E/DX2                !
 ! D3    D(8,1,9,2)            178.4569         estimate D2E/DX2                !
 ! D4    D(8,1,9,23)            -0.1119         estimate D2E/DX2                !
 ! D5    D(27,2,9,1)           169.8656         estimate D2E/DX2                !
 ! D6    D(27,2,9,23)          -11.6572         estimate D2E/DX2                !
 ! D7    D(28,2,9,1)            16.593          estimate D2E/DX2                !
 ! D8    D(28,2,9,23)         -164.9298         estimate D2E/DX2                !
 ! D9    D(14,3,13,12)          -0.3386         estimate D2E/DX2                !
 ! D10   D(14,3,13,31)         179.1339         estimate D2E/DX2                !
 ! D11   D(13,3,14,4)         -178.1829         estimate D2E/DX2                !
 ! D12   D(13,3,14,6)            1.4896         estimate D2E/DX2                !
 ! D13   D(15,4,14,3)          173.6088         estimate D2E/DX2                !
 ! D14   D(15,4,14,6)           -6.0805         estimate D2E/DX2                !
 ! D15   D(29,4,14,3)           -9.0281         estimate D2E/DX2                !
 ! D16   D(29,4,14,6)          171.2826         estimate D2E/DX2                !
 ! D17   D(14,4,15,16)         -18.1602         estimate D2E/DX2                !
 ! D18   D(14,4,15,22)         163.9583         estimate D2E/DX2                !
 ! D19   D(29,4,15,16)         164.5182         estimate D2E/DX2                !
 ! D20   D(29,4,15,22)         -13.3633         estimate D2E/DX2                !
 ! D21   D(19,5,18,17)          -7.0077         estimate D2E/DX2                !
 ! D22   D(19,5,18,21)         173.0194         estimate D2E/DX2                !
 ! D23   D(20,5,18,17)        -167.5115         estimate D2E/DX2                !
 ! D24   D(20,5,18,21)          12.5156         estimate D2E/DX2                !
 ! D25   D(18,5,19,34)         162.3727         estimate D2E/DX2                !
 ! D26   D(18,5,19,35)          43.4146         estimate D2E/DX2                !
 ! D27   D(18,5,19,36)         -77.3993         estimate D2E/DX2                !
 ! D28   D(20,5,19,34)         -36.3558         estimate D2E/DX2                !
 ! D29   D(20,5,19,35)        -155.3139         estimate D2E/DX2                !
 ! D30   D(20,5,19,36)          83.8722         estimate D2E/DX2                !
 ! D31   D(18,5,20,37)        -172.4049         estimate D2E/DX2                !
 ! D32   D(18,5,20,38)          67.3604         estimate D2E/DX2                !
 ! D33   D(18,5,20,39)         -52.4402         estimate D2E/DX2                !
 ! D34   D(19,5,20,37)          26.1509         estimate D2E/DX2                !
 ! D35   D(19,5,20,38)         -94.0838         estimate D2E/DX2                !
 ! D36   D(19,5,20,39)         146.1156         estimate D2E/DX2                !
 ! D37   D(14,6,11,10)        -177.0895         estimate D2E/DX2                !
 ! D38   D(14,6,11,12)           1.3051         estimate D2E/DX2                !
 ! D39   D(11,6,14,3)           -1.9864         estimate D2E/DX2                !
 ! D40   D(11,6,14,4)          177.6709         estimate D2E/DX2                !
 ! D41   D(24,7,8,1)           149.8524         estimate D2E/DX2                !
 ! D42   D(24,7,8,10)          -30.0561         estimate D2E/DX2                !
 ! D43   D(25,7,8,1)            30.5046         estimate D2E/DX2                !
 ! D44   D(25,7,8,10)         -149.4039         estimate D2E/DX2                !
 ! D45   D(26,7,8,1)           -89.3305         estimate D2E/DX2                !
 ! D46   D(26,7,8,10)           90.761          estimate D2E/DX2                !
 ! D47   D(1,8,10,11)          176.7173         estimate D2E/DX2                !
 ! D48   D(1,8,10,23)           -2.7753         estimate D2E/DX2                !
 ! D49   D(7,8,10,11)           -3.3757         estimate D2E/DX2                !
 ! D50   D(7,8,10,23)          177.1317         estimate D2E/DX2                !
 ! D51   D(1,9,23,10)           -1.2634         estimate D2E/DX2                !
 ! D52   D(2,9,23,10)         -179.8533         estimate D2E/DX2                !
 ! D53   D(8,10,11,6)           -4.2996         estimate D2E/DX2                !
 ! D54   D(8,10,11,12)         177.3572         estimate D2E/DX2                !
 ! D55   D(23,10,11,6)         175.1386         estimate D2E/DX2                !
 ! D56   D(23,10,11,12)         -3.2046         estimate D2E/DX2                !
 ! D57   D(8,10,23,9)            2.1175         estimate D2E/DX2                !
 ! D58   D(11,10,23,9)        -177.4466         estimate D2E/DX2                !
 ! D59   D(6,11,12,13)          -0.2816         estimate D2E/DX2                !
 ! D60   D(6,11,12,30)        -179.8275         estimate D2E/DX2                !
 ! D61   D(10,11,12,13)        177.9758         estimate D2E/DX2                !
 ! D62   D(10,11,12,30)         -1.5701         estimate D2E/DX2                !
 ! D63   D(11,12,13,3)          -0.2159         estimate D2E/DX2                !
 ! D64   D(11,12,13,31)       -179.6686         estimate D2E/DX2                !
 ! D65   D(30,12,13,3)         179.338          estimate D2E/DX2                !
 ! D66   D(30,12,13,31)         -0.1147         estimate D2E/DX2                !
 ! D67   D(4,15,16,17)        -177.8227         estimate D2E/DX2                !
 ! D68   D(4,15,16,32)           0.2069         estimate D2E/DX2                !
 ! D69   D(22,15,16,17)          0.0325         estimate D2E/DX2                !
 ! D70   D(22,15,16,32)        178.0621         estimate D2E/DX2                !
 ! D71   D(4,15,22,21)         178.3782         estimate D2E/DX2                !
 ! D72   D(4,15,22,41)          -0.7637         estimate D2E/DX2                !
 ! D73   D(16,15,22,21)          0.3823         estimate D2E/DX2                !
 ! D74   D(16,15,22,41)       -178.7596         estimate D2E/DX2                !
 ! D75   D(15,16,17,18)         -0.2085         estimate D2E/DX2                !
 ! D76   D(15,16,17,33)        178.6663         estimate D2E/DX2                !
 ! D77   D(32,16,17,18)       -178.3198         estimate D2E/DX2                !
 ! D78   D(32,16,17,33)          0.555          estimate D2E/DX2                !
 ! D79   D(16,17,18,5)         179.9979         estimate D2E/DX2                !
 ! D80   D(16,17,18,21)         -0.0283         estimate D2E/DX2                !
 ! D81   D(33,17,18,5)           1.1794         estimate D2E/DX2                !
 ! D82   D(33,17,18,21)       -178.8467         estimate D2E/DX2                !
 ! D83   D(5,18,21,22)        -179.5805         estimate D2E/DX2                !
 ! D84   D(5,18,21,40)          -0.7302         estimate D2E/DX2                !
 ! D85   D(17,18,21,22)          0.4456         estimate D2E/DX2                !
 ! D86   D(17,18,21,40)        179.2959         estimate D2E/DX2                !
 ! D87   D(18,21,22,15)         -0.633          estimate D2E/DX2                !
 ! D88   D(18,21,22,41)        178.518          estimate D2E/DX2                !
 ! D89   D(40,21,22,15)       -179.5371         estimate D2E/DX2                !
 ! D90   D(40,21,22,41)         -0.3861         estimate D2E/DX2                !
 --------------------------------------------------------------------------------
 Trust Radius=3.00D-01 FncErr=1.00D-07 GrdErr=1.00D-07
 Number of steps in this run= 213 maximum allowed number of steps= 246.
 GradGradGradGradGradGradGradGradGradGradGradGradGradGradGradGradGradGrad

                          Input orientation:                          
 ---------------------------------------------------------------------
 Center     Atomic      Atomic             Coordinates (Angstroms)
 Number     Number       Type             X           Y           Z
 ---------------------------------------------------------------------
      1          7           0        1.374000   -8.619000   25.826000
      2          7           0        3.184000   -7.908000   24.531000
      3          7           0       -2.118000   -4.412000   29.331000
      4          7           0       -3.420000   -6.308000   29.667000
      5          7           0       -6.043000  -11.320000   29.464000
      6          7           0       -1.424000   -6.504000   28.372000
      7          6           0       -0.433000   -9.244000   27.246000
      8          6           0        0.480000   -8.171000   26.688000
      9          6           0        2.165000   -7.681000   25.401000
     10          6           0        0.514000   -6.785000   26.953000
     11          6           0       -0.353000   -5.898000   27.800000
     12          6           0       -0.122000   -4.528000   27.980000
     13          6           0       -1.037000   -3.821000   28.761000
     14          6           0       -2.276000   -5.738000   29.099000
     15          6           0       -4.016000   -7.580000   29.584000
     16          6           0       -3.741000   -8.506000   28.573000
     17          6           0       -4.405000   -9.730000   28.532000
     18          6           0       -5.361000  -10.070000   29.501000
     19          6           0       -5.884000  -12.235000   28.329000
     20          6           0       -7.216000  -11.543000   30.309000
     21          6           0       -5.623000   -9.132000   30.513000
     22          6           0       -4.966000   -7.906000   30.549000
     23         16           0        1.859000   -6.113000   26.050000
     24          1           0       -0.770000   -9.020000   28.257000
     25          1           0        0.050000  -10.220000   27.307000
     26          1           0       -1.319000   -9.371000   26.623000
     27          1           0        3.698000   -7.143000   24.091000
     28          1           0        3.186000   -8.768000   24.007000
     29          1           0       -3.891000   -5.670000   30.295000
     30          1           0        0.721000   -4.024000   27.533000
     31          1           0       -0.914000   -2.760000   28.931000
     32          1           0       -3.040000   -8.294000   27.786000
     33          1           0       -4.163000  -10.390000   27.714000
     34          1           0       -6.208000  -13.244000   28.588000
     35          1           0       -4.846000  -12.322000   28.006000
     36          1           0       -6.471000  -11.903000   27.473000
     37          1           0       -7.548000  -12.581000   30.272000
     38          1           0       -8.040000  -10.909000   29.979000
     39          1           0       -7.012000  -11.309000   31.354000
     40          1           0       -6.352000   -9.318000   31.285000
     41          1           0       -5.212000   -7.200000   31.330000
 ---------------------------------------------------------------------
                    Distance matrix (angstroms):
                    1          2          3          4          5
     1  N    0.000000
     2  N    2.336375   0.000000
     3  N    6.494454   7.960730   0.000000
     4  N    6.563264   8.517706   2.324417   0.000000
     5  N    8.691509  11.005170   7.946306   5.660520   0.000000
     6  N    4.334068   6.161019   2.403702   2.387354   6.761766
     7  C    2.381654   4.715804   5.525819   4.837717   6.379765
     8  C    1.320221   3.468924   5.278744   5.249306   7.757055
     9  C    1.298518   1.358967   6.668984   7.160734   9.855027
    10  C    2.318035   3.775727   4.267720   4.803091   8.358564
    11  C    3.779292   5.218892   2.769004   3.613901   8.033871
    12  C    4.859425   5.852319   2.413022   4.109887   9.131909
    13  C    6.119473   7.239704   1.357476   3.561558   9.043741
    14  C    5.686404   7.442253   1.355383   1.398664   6.744052
    15  C    6.652382   8.802295   3.701707   1.407156   4.255670
    16  C    5.807065   8.040584   4.468728   2.476102   3.743218
    17  C    6.477160   8.770439   5.843791   3.737450   2.465719
    18  C    7.808409  10.118902   6.523719   4.236470   1.424427
    19  C    8.486403  10.741339   8.739914   6.556742   1.466537
    20  C   10.121026  12.440197   8.820275   6.498231   1.462766
    21  C    8.437366  10.716611   5.996712   3.680204   2.462548
    22  C    7.937928  10.131082   4.669332   2.391996   3.740662
    23  S    2.562311   2.699076   5.429078   6.402230  10.060311
    24  H    3.266083   5.545605   4.919781   4.045435   5.878042
    25  H    2.551380   4.782622   6.521477   5.737094   6.556470
    26  H    2.907398   5.176277   5.706430   4.802302   5.846884
    27  H    3.254194   1.021284   8.291069   9.080469  11.882910
    28  H    2.571829   1.007065   8.686318   9.040267  11.021161
    29  H    7.509247   9.396168   2.378106   1.011568   6.102800
    30  H    4.945127   5.492161   3.382790   5.188303  10.134696
    31  H    7.014546   7.915523   2.082959   4.405682   9.993214
    32  H    4.840519   7.034358   4.278672   2.761658   4.581525
    33  H    6.112230   8.382734   6.521748   4.585737   2.731630
    34  H    9.300860  11.538709   9.761371   7.552833   2.120466
    35  H    7.559961   9.799996   8.471464   6.400046   2.136019
    36  H    8.662638  10.855156   8.860917   6.739901   2.118290
    37  H   10.726903  13.037325   9.854083   7.533720   2.123207
    38  H   10.541105  12.832181   8.814817   6.527706   2.102892
    39  H   10.398071  12.731007   8.695538   6.384233   2.123954
    40  H    9.485798  11.770298   6.768582   4.502738   2.723881
    41  H    8.699596  10.826841   4.619717   2.602402   4.598578
                    6          7          8          9         10
     6  N    0.000000
     7  C    3.123709   0.000000
     8  C    3.039730   1.515342   0.000000
     9  C    4.805527   3.549169   2.176165   0.000000
    10  C    2.418340   2.651290   1.411516   2.436662   0.000000
    11  C    1.357004   3.392496   2.664012   3.908275   1.501954
    12  C    2.398634   4.782900   3.911920   4.671511   2.559936
    13  C    2.738536   5.662947   5.051843   6.036721   3.802599
    14  C    1.356904   4.372905   4.396356   6.096961   3.672278
    15  C    3.056989   4.590537   5.380531   7.464077   5.298593
    16  C    3.068696   3.639840   4.634899   6.754483   4.867367
    17  C    4.395343   4.203186   5.449224   7.560851   5.946665
    18  C    5.430559   5.482015   6.755476   8.897078   7.197163
    19  C    7.262080   6.311289   7.727190   9.700438   8.516471
    20  C    7.917749   7.789510   9.149341  11.269724   9.677510
    21  C    5.396468   6.133672   7.266413   9.428196   7.472936
    22  C    4.387562   5.766120   6.681052   8.797937   6.649681
    23  S    4.040130   4.060399   2.558134   1.724373   1.753858
    24  H    2.602152   1.088975   2.178316   4.308582   2.888650
    25  H    4.137095   1.090681   2.183223   3.814785   3.484227
    26  H    3.360017   1.090529   2.163475   4.060498   3.186877
    27  H    6.705980   5.606549   4.261070   2.087015   4.296169
    28  H    6.740254   4.880047   3.855724   2.041383   4.444186
    29  H    3.237217   5.833322   6.194440   8.041797   5.640586
    30  H    3.384575   5.353736   4.239070   4.472607   2.828846
    31  H    3.819701   6.716609   6.021064   6.793922   4.706622
    32  H    2.481724   2.826756   3.689327   5.758126   3.949922
    33  H    4.799592   3.930043   5.247293   7.261696   5.953946
    34  H    8.268066   7.152034   8.606664  10.545666   9.464523
    35  H    6.759672   5.433806   6.879986   8.802217   7.777967
    36  H    7.445107   6.601458   7.928458   9.833563   8.674938
    37  H    8.834212   8.421132   9.835748  11.919690  10.469251
    38  H    8.109126   8.252755   9.535079  11.641310   9.966693
    39  H    7.950226   8.026402   9.367426  11.524666   9.822222
    40  H    6.378820   7.166140   8.314099  10.480483   8.504368
    41  H    4.856246   6.610282   7.408770   9.476525   7.219240
                   11         12         13         14         15
    11  C    0.000000
    12  C    1.400950   0.000000
    13  C    2.388578   1.395362   0.000000
    14  C    2.326141   2.712190   2.307435   0.000000
    15  C    4.407874   5.201034   4.866400   2.579882   0.000000
    16  C    4.344852   5.410480   5.412595   3.175646   1.398293
    17  C    5.624834   6.760887   6.805303   4.559627   2.424979
    18  C    6.736397   7.776524   7.635089   5.333390   2.831257
    19  C    8.427892   9.629138   9.719847   7.471384   5.170442
    20  C    9.233736  10.244965  10.010276   7.717883   5.144997
    21  C    6.752187   7.607490   7.232401   4.972026   2.419544
    22  C    5.733135   6.440107   5.943165   3.746842   1.392839
    23  S    2.828722   3.187709   4.581441   5.151238   7.011196
    24  H    3.182707   4.546944   5.230192   3.707900   3.790916
    25  H    4.368654   5.734229   6.651533   5.358159   5.355995
    26  H    3.792125   5.170001   5.954248   4.499457   4.387369
    27  H    5.631812   6.046069   7.434030   7.921033   9.479969
    28  H    5.928598   6.686194   8.056491   8.058710   9.186026
    29  H    4.335257   4.568233   3.730586   2.010787   2.041873
    30  H    2.176383   1.079108   2.154010   3.791063   6.268246
    31  H    3.382444   2.158122   1.081550   3.278986   5.768987
    32  H    3.600136   4.768135   4.997035   2.973348   2.166835
    33  H    5.890803   7.124850   7.349819   5.207696   3.378551
    34  H    9.426860  10.647897  10.749981   8.488921   6.154492
    35  H    7.842019   9.113906   9.345882   7.151825   5.066118
    36  H    8.578862   9.744613   9.823748   7.632112   5.401081
    37  H   10.126268  11.191494  11.018795   8.717601   6.161036
    38  H    9.431232  10.363778  10.038191   7.793416   5.237446
    39  H    9.287202  10.239040   9.924435   7.651847   5.100427
    40  H    7.734961   8.525258   8.052131   5.848827   3.372083
    41  H    6.145404   6.653584   5.953825   3.966724   2.150193
                   16         17         18         19         20
    16  C    0.000000
    17  C    1.393109   0.000000
    18  C    2.435504   1.403031   0.000000
    19  C    4.307833   2.916106   2.516811   0.000000
    20  C    4.930790   3.787667   2.502722   2.484650   0.000000
    21  C    2.774419   2.401143   1.404504   3.803497   2.896927
    22  C    2.401083   2.776686   2.436642   4.950895   4.283441
    23  S    6.591811   7.647268   8.927242  10.130487  11.400860
    24  H    3.031649   3.713886   4.871069   6.041060   7.219913
    25  H    4.348820   4.646262   5.840810   6.349572   7.972270
    26  H    3.227508   3.646445   5.010913   5.652624   7.285519
    27  H    8.791178   9.595502  10.949927  11.649199  13.309355
    28  H    8.300622   8.889564  10.243556  10.628484  12.474672
    29  H    3.321247   4.456003   4.706521   7.136976   6.748922
    30  H    6.409319   7.735135   8.798742  10.567884  11.279960
    31  H    6.413783   7.805587   8.575361  10.716293  10.897485
    32  H    1.075041   2.117035   3.388575   4.890262   5.861784
    33  H    2.113154   1.078558   2.175080   2.596939   4.169442
    34  H    5.341812   3.949955   3.409583   1.090934   2.621318
    35  H    4.013025   2.681347   2.751682   1.090570   3.395225
    36  H    4.494720   3.179900   2.950385   1.089738   2.954238
    37  H    5.829706   4.586311   3.417972   2.581446   1.090430
    38  H    5.121782   4.086205   2.847709   3.021442   1.090794
    39  H    5.127398   4.153718   2.773902   3.358643   1.090136
    40  H    3.851183   3.396993   2.174912   4.179216   2.578701
    41  H    3.386816   3.857584   3.406515   5.899899   4.890819
                   21         22         23         24         25
    21  C    0.000000
    22  C    1.391410   0.000000
    23  S    9.220252   8.368780   0.000000
    24  H    5.352914   4.909244   4.498126   0.000000
    25  H    6.606445   6.405109   4.660470   1.736347   0.000000
    26  H    5.806345   5.555206   4.587219   1.759136   1.750091
    27  H   11.492574  10.832951   2.877586   6.390752   5.754867
    28  H   10.957144  10.487894   3.603304   5.811707   4.778368
    29  H    3.877214   2.493960   7.160920   5.011645   6.720277
    30  H    8.672854   7.517190   2.803258   5.263770   6.236324
    31  H    8.079591   6.746699   5.218458   6.297826   7.695341
    32  H    3.848462   3.390308   5.636547   2.429366   3.672467
    33  H    3.398318   3.853867   7.571401   3.699216   4.236026
    34  H    4.577815   5.820853  11.062056   6.893735   7.067397
    35  H    4.130966   5.097284   9.345301   5.251665   5.373809
    36  H    4.199898   5.263346  10.243922   6.436439   6.736727
    37  H    3.957184   5.347811  12.171769   7.917211   8.490886
    38  H    3.047093   4.335018  11.680276   7.706264   8.547655
    39  H    2.715867   4.051487  11.568296   7.334405   8.211941
    40  H    1.077971   2.111027  10.251720   6.357382   7.591027
    41  H    2.137530   1.081163   8.891513   5.699745   7.279668
                   26         27         28         29         30
    26  H    0.000000
    27  H    6.045271   0.000000
    28  H    5.244244   1.705821   0.000000
    29  H    5.813447   9.912228   9.960948   0.000000
    30  H    5.794835   5.517069   6.404251   5.622144   0.000000
    31  H    7.014001   7.994175   8.783612   4.380768   2.495060
    32  H    2.339731   7.770358   7.298534   3.728895   5.695791
    33  H    3.212005   9.244699   8.389311   5.386459   8.025719
    34  H    6.539394  12.472933  11.369581   8.102334  11.581557
    35  H    4.802168  10.730760   9.650696   7.099342  10.003600
    36  H    5.803157  11.726214  10.728422   7.312344  10.668041
    37  H    7.900617  13.937328  13.000306   7.818958  12.210681
    38  H    7.668117  13.661330  12.894640   6.690380  11.407947
    39  H    7.651696  13.594515  12.823194   6.531496  11.290286
    40  H    6.860623  12.549373  12.010213   4.510491   9.598503
    41  H    6.482634  11.480177  11.252171   2.270939   7.726880
                   31         32         33         34         35
    31  H    0.000000
    32  H    6.037885   0.000000
    33  H    8.381765   2.378976   0.000000
    34  H   11.749823   5.931436   3.618179   0.000000
    35  H   10.380178   4.419821   2.069874   1.744664   0.000000
    36  H   10.798169   4.989450   2.770219   1.763711   1.760760
    37  H   11.927291   6.699301   4.775151   2.251894   3.535907
    38  H   10.875862   6.053716   4.520035   3.277702   4.011351
    39  H   10.776917   6.131691   4.712851   3.470072   4.114223
    40  H    8.838582   4.925538   4.323534   4.765293   4.695092
    41  H    6.628846   4.298181   4.934770   6.711223   6.117010
                   36         37         38         39         40
    36  H    0.000000
    37  H    3.074738   0.000000
    38  H    3.119268   1.767342   0.000000
    39  H    3.963291   1.753854   1.762784   0.000000
    40  H    4.607356   3.619911   2.662003   2.098676   0.000000
    41  H    6.211259   5.960824   4.855869   4.486029   2.405733
                   41
    41  H    0.000000
 Stoichiometry    C16H18N6S
 Framework group  C1[X(C16H18N6S)]
 Deg. of freedom   117
 Full point group                 C1      NOp   1
 Largest Abelian subgroup         C1      NOp   1
 Largest concise Abelian subgroup C1      NOp   1
                         Standard orientation:                         
 ---------------------------------------------------------------------
 Center     Atomic      Atomic             Coordinates (Angstroms)
 Number     Number       Type             X           Y           Z
 ---------------------------------------------------------------------
      1          7           0       -3.308208   -2.458285   -0.220326
      2          7           0       -5.593014   -2.853989    0.065549
      3          7           0       -0.856503    3.543668    0.158688
      4          7           0        1.139332    2.363472   -0.004699
      5          7           0        5.322051   -1.450495   -0.007420
      6          7           0       -0.917141    1.154462   -0.097826
      7          6           0       -1.013830   -1.930300   -0.579960
      8          6           0       -2.429817   -1.475147   -0.289995
      9          6           0       -4.515983   -2.028961   -0.012694
     10          6           0       -2.938037   -0.173793   -0.088582
     11          6           0       -2.272082    1.170941   -0.024860
     12          6           0       -2.968175    2.376221    0.134564
     13          6           0       -2.212586    3.546176    0.220143
     14          6           0       -0.258911    2.335611    0.015354
     15          6           0        2.131481    1.365690   -0.017379
     16          6           0        1.905047    0.035544    0.349584
     17          6           0        2.949075   -0.886807    0.354536
     18          6           0        4.250768   -0.511700   -0.010688
     19          6           0        5.138500   -2.805648    0.522296
     20          6           0        6.705057   -0.988476   -0.123669
     21          6           0        4.461865    0.826392   -0.381605
     22          6           0        3.420820    1.749557   -0.378284
     23         16           0       -4.673374   -0.317032    0.121430
     24          1           0       -0.441470   -1.185802   -1.131315
     25          1           0       -0.976982   -2.836613   -1.185620
     26          1           0       -0.472703   -2.146898    0.341735
     27          1           0       -6.506313   -2.520436    0.378037
     28          1           0       -5.435220   -3.837700    0.212500
     29          1           0        1.500198    3.307173   -0.054427
     30          1           0       -4.044774    2.413771    0.197801
     31          1           0       -2.693963    4.506084    0.348998
     32          1           0        0.936770   -0.307768    0.666273
     33          1           0        2.712355   -1.891063    0.668737
     34          1           0        5.928487   -3.474021    0.176844
     35          1           0        4.197843   -3.254675    0.201547
     36          1           0        5.151318   -2.805344    1.611959
     37          1           0        7.399724   -1.820913   -0.239953
     38          1           0        6.988388   -0.429496    0.769134
     39          1           0        6.841879   -0.334389   -0.984975
     40          1           0        5.436437    1.190696   -0.663586
     41          1           0        3.627236    2.776276   -0.646899
 ---------------------------------------------------------------------
 Rotational constants (GHZ):      0.4019183      0.1136392      0.0894309
 Standard basis: VSTO-6G (5D, 7F)
 There are   110 symmetry adapted basis functions of A   symmetry.
 Integral buffers will be    131072 words long.
 Regular integral format.
 Two-electron integral symmetry is turned off.
   110 basis functions,   660 primitive gaussians,   110 cartesian basis functions
    59 alpha electrons       59 beta electrons
       nuclear repulsion energy       970.2681967668 Hartrees.



 Warning!  S  atom   23 may be hypervalent but has no d functions.



 Do NDO integrals.
 One-electron integrals computed using PRISM.
 NBasis=   110 RedAO= F  NBF=   110
 NBsUse=   110 1.00D-04 NBFU=   110
 Simple Huckel Guess.
 Initial guess orbital symmetries:
       Occupied  (A) (A) (A) (A) (A) (A) (A) (A) (A) (A) (A) (A)
                 (A) (A) (A) (A) (A) (A) (A) (A) (A) (A) (A) (A)
                 (A) (A) (A) (A) (A) (A) (A) (A) (A) (A) (A) (A)
                 (A) (A) (A) (A) (A) (A) (A) (A) (A) (A) (A) (A)
                 (A) (A) (A) (A) (A) (A) (A) (A) (A) (A) (A)
       Virtual   (A) (A) (A) (A) (A) (A) (A) (A) (A) (A) (A) (A)
                 (A) (A) (A) (A) (A) (A) (A) (A) (A) (A) (A) (A)
                 (A) (A) (A) (A) (A) (A) (A) (A) (A) (A) (A) (A)
                 (A) (A) (A) (A) (A) (A) (A) (A) (A) (A) (A) (A)
                 (A) (A) (A)
 The electronic state of the initial guess is 1-A.
 Requested convergence on RMS density matrix=1.00D-08 within 128 cycles.
 Requested convergence on MAX density matrix=1.00D-06.
 Requested convergence on             energy=1.00D-06.
 No special actions if energy rises.
 Overlap will be assumed to be unity.
 Keep J ints in memory in canonical form, NReq=945629.
 SCF Done:  E(RAM1) =  0.254833636080     A.U. after   17 cycles
             Convg  =    0.4263D-08             -V/T =  1.0011

 **********************************************************************

            Population analysis using the SCF density.

 **********************************************************************

 Orbital symmetries:
       Occupied  (A) (A) (A) (A) (A) (A) (A) (A) (A) (A) (A) (A)
                 (A) (A) (A) (A) (A) (A) (A) (A) (A) (A) (A) (A)
                 (A) (A) (A) (A) (A) (A) (A) (A) (A) (A) (A) (A)
                 (A) (A) (A) (A) (A) (A) (A) (A) (A) (A) (A) (A)
                 (A) (A) (A) (A) (A) (A) (A) (A) (A) (A) (A)
       Virtual   (A) (A) (A) (A) (A) (A) (A) (A) (A) (A) (A) (A)
                 (A) (A) (A) (A) (A) (A) (A) (A) (A) (A) (A) (A)
                 (A) (A) (A) (A) (A) (A) (A) (A) (A) (A) (A) (A)
                 (A) (A) (A) (A) (A) (A) (A) (A) (A) (A) (A) (A)
                 (A) (A) (A)
 The electronic state is 1-A.
 Alpha  occ. eigenvalues --   -1.50386  -1.48576  -1.46518  -1.37967  -1.32676
 Alpha  occ. eigenvalues --   -1.29650  -1.25410  -1.17802  -1.16032  -1.13063
 Alpha  occ. eigenvalues --   -1.08461  -1.06180  -1.05097  -0.94428  -0.90326
 Alpha  occ. eigenvalues --   -0.89531  -0.87534  -0.84318  -0.79437  -0.76516
 Alpha  occ. eigenvalues --   -0.71218  -0.68628  -0.67993  -0.65520  -0.63272
 Alpha  occ. eigenvalues --   -0.61791  -0.60953  -0.59716  -0.59019  -0.58715
 Alpha  occ. eigenvalues --   -0.58131  -0.56794  -0.55833  -0.54609  -0.53456
 Alpha  occ. eigenvalues --   -0.52800  -0.51677  -0.51146  -0.50316  -0.50005
 Alpha  occ. eigenvalues --   -0.49656  -0.49561  -0.47783  -0.47227  -0.46730
 Alpha  occ. eigenvalues --   -0.45527  -0.45477  -0.43789  -0.43643  -0.42555
 Alpha  occ. eigenvalues --   -0.41009  -0.40330  -0.38822  -0.37349  -0.37217
 Alpha  occ. eigenvalues --   -0.35333  -0.34060  -0.31299  -0.28238
 Alpha virt. eigenvalues --   -0.02288   0.00326   0.00644   0.02204   0.02372
 Alpha virt. eigenvalues --    0.02538   0.03819   0.06508   0.07076   0.08022
 Alpha virt. eigenvalues --    0.08207   0.10744   0.11759   0.11816   0.12872
 Alpha virt. eigenvalues --    0.14000   0.14299   0.14527   0.14728   0.15239
 Alpha virt. eigenvalues --    0.15338   0.15392   0.15651   0.15775   0.15977
 Alpha virt. eigenvalues --    0.16667   0.16884   0.17018   0.17206   0.17644
 Alpha virt. eigenvalues --    0.17709   0.17775   0.18017   0.18243   0.18439
 Alpha virt. eigenvalues --    0.19072   0.19370   0.19705   0.19758   0.19922
 Alpha virt. eigenvalues --    0.20349   0.20469   0.21208   0.21611   0.22057
 Alpha virt. eigenvalues --    0.22649   0.23263   0.24146   0.24716   0.25000
 Alpha virt. eigenvalues --    0.26953
          Condensed to atoms (all electrons):
              1          2          3          4          5          6
     1  N    5.217799   0.000000   0.000000   0.000000   0.000000   0.000000
     2  N    0.000000   5.357223   0.000000   0.000000   0.000000   0.000000
     3  N    0.000000   0.000000   5.250096   0.000000   0.000000   0.000000
     4  N    0.000000   0.000000   0.000000   5.272152   0.000000   0.000000
     5  N    0.000000   0.000000   0.000000   0.000000   5.321586   0.000000
     6  N    0.000000   0.000000   0.000000   0.000000   0.000000   5.237291
     7  C    0.000000   0.000000   0.000000   0.000000   0.000000   0.000000
     8  C    0.000000   0.000000   0.000000   0.000000   0.000000   0.000000
     9  C    0.000000   0.000000   0.000000   0.000000   0.000000   0.000000
    10  C    0.000000   0.000000   0.000000   0.000000   0.000000   0.000000
    11  C    0.000000   0.000000   0.000000   0.000000   0.000000   0.000000
    12  C    0.000000   0.000000   0.000000   0.000000   0.000000   0.000000
    13  C    0.000000   0.000000   0.000000   0.000000   0.000000   0.000000
    14  C    0.000000   0.000000   0.000000   0.000000   0.000000   0.000000
    15  C    0.000000   0.000000   0.000000   0.000000   0.000000   0.000000
    16  C    0.000000   0.000000   0.000000   0.000000   0.000000   0.000000
    17  C    0.000000   0.000000   0.000000   0.000000   0.000000   0.000000
    18  C    0.000000   0.000000   0.000000   0.000000   0.000000   0.000000
    19  C    0.000000   0.000000   0.000000   0.000000   0.000000   0.000000
    20  C    0.000000   0.000000   0.000000   0.000000   0.000000   0.000000
    21  C    0.000000   0.000000   0.000000   0.000000   0.000000   0.000000
    22  C    0.000000   0.000000   0.000000   0.000000   0.000000   0.000000
    23  S    0.000000   0.000000   0.000000   0.000000   0.000000   0.000000
    24  H    0.000000   0.000000   0.000000   0.000000   0.000000   0.000000
    25  H    0.000000   0.000000   0.000000   0.000000   0.000000   0.000000
    26  H    0.000000   0.000000   0.000000   0.000000   0.000000   0.000000
    27  H    0.000000   0.000000   0.000000   0.000000   0.000000   0.000000
    28  H    0.000000   0.000000   0.000000   0.000000   0.000000   0.000000
    29  H    0.000000   0.000000   0.000000   0.000000   0.000000   0.000000
    30  H    0.000000   0.000000   0.000000   0.000000   0.000000   0.000000
    31  H    0.000000   0.000000   0.000000   0.000000   0.000000   0.000000
    32  H    0.000000   0.000000   0.000000   0.000000   0.000000   0.000000
    33  H    0.000000   0.000000   0.000000   0.000000   0.000000   0.000000
    34  H    0.000000   0.000000   0.000000   0.000000   0.000000   0.000000
    35  H    0.000000   0.000000   0.000000   0.000000   0.000000   0.000000
    36  H    0.000000   0.000000   0.000000   0.000000   0.000000   0.000000
    37  H    0.000000   0.000000   0.000000   0.000000   0.000000   0.000000
    38  H    0.000000   0.000000   0.000000   0.000000   0.000000   0.000000
    39  H    0.000000   0.000000   0.000000   0.000000   0.000000   0.000000
    40  H    0.000000   0.000000   0.000000   0.000000   0.000000   0.000000
    41  H    0.000000   0.000000   0.000000   0.000000   0.000000   0.000000
              7          8          9         10         11         12
     1  N    0.000000   0.000000   0.000000   0.000000   0.000000   0.000000
     2  N    0.000000   0.000000   0.000000   0.000000   0.000000   0.000000
     3  N    0.000000   0.000000   0.000000   0.000000   0.000000   0.000000
     4  N    0.000000   0.000000   0.000000   0.000000   0.000000   0.000000
     5  N    0.000000   0.000000   0.000000   0.000000   0.000000   0.000000
     6  N    0.000000   0.000000   0.000000   0.000000   0.000000   0.000000
     7  C    4.147384   0.000000   0.000000   0.000000   0.000000   0.000000
     8  C    0.000000   3.943590   0.000000   0.000000   0.000000   0.000000
     9  C    0.000000   0.000000   4.053088   0.000000   0.000000   0.000000
    10  C    0.000000   0.000000   0.000000   4.368771   0.000000   0.000000
    11  C    0.000000   0.000000   0.000000   0.000000   3.834158   0.000000
    12  C    0.000000   0.000000   0.000000   0.000000   0.000000   4.294039
    13  C    0.000000   0.000000   0.000000   0.000000   0.000000   0.000000
    14  C    0.000000   0.000000   0.000000   0.000000   0.000000   0.000000
    15  C    0.000000   0.000000   0.000000   0.000000   0.000000   0.000000
    16  C    0.000000   0.000000   0.000000   0.000000   0.000000   0.000000
    17  C    0.000000   0.000000   0.000000   0.000000   0.000000   0.000000
    18  C    0.000000   0.000000   0.000000   0.000000   0.000000   0.000000
    19  C    0.000000   0.000000   0.000000   0.000000   0.000000   0.000000
    20  C    0.000000   0.000000   0.000000   0.000000   0.000000   0.000000
    21  C    0.000000   0.000000   0.000000   0.000000   0.000000   0.000000
    22  C    0.000000   0.000000   0.000000   0.000000   0.000000   0.000000
    23  S    0.000000   0.000000   0.000000   0.000000   0.000000   0.000000
    24  H    0.000000   0.000000   0.000000   0.000000   0.000000   0.000000
    25  H    0.000000   0.000000   0.000000   0.000000   0.000000   0.000000
    26  H    0.000000   0.000000   0.000000   0.000000   0.000000   0.000000
    27  H    0.000000   0.000000   0.000000   0.000000   0.000000   0.000000
    28  H    0.000000   0.000000   0.000000   0.000000   0.000000   0.000000
    29  H    0.000000   0.000000   0.000000   0.000000   0.000000   0.000000
    30  H    0.000000   0.000000   0.000000   0.000000   0.000000   0.000000
    31  H    0.000000   0.000000   0.000000   0.000000   0.000000   0.000000
    32  H    0.000000   0.000000   0.000000   0.000000   0.000000   0.000000
    33  H    0.000000   0.000000   0.000000   0.000000   0.000000   0.000000
    34  H    0.000000   0.000000   0.000000   0.000000   0.000000   0.000000
    35  H    0.000000   0.000000   0.000000   0.000000   0.000000   0.000000
    36  H    0.000000   0.000000   0.000000   0.000000   0.000000   0.000000
    37  H    0.000000   0.000000   0.000000   0.000000   0.000000   0.000000
    38  H    0.000000   0.000000   0.000000   0.000000   0.000000   0.000000
    39  H    0.000000   0.000000   0.000000   0.000000   0.000000   0.000000
    40  H    0.000000   0.000000   0.000000   0.000000   0.000000   0.000000
    41  H    0.000000   0.000000   0.000000   0.000000   0.000000   0.000000
             13         14         15         16         17         18
     1  N    0.000000   0.000000   0.000000   0.000000   0.000000   0.000000
     2  N    0.000000   0.000000   0.000000   0.000000   0.000000   0.000000
     3  N    0.000000   0.000000   0.000000   0.000000   0.000000   0.000000
     4  N    0.000000   0.000000   0.000000   0.000000   0.000000   0.000000
     5  N    0.000000   0.000000   0.000000   0.000000   0.000000   0.000000
     6  N    0.000000   0.000000   0.000000   0.000000   0.000000   0.000000
     7  C    0.000000   0.000000   0.000000   0.000000   0.000000   0.000000
     8  C    0.000000   0.000000   0.000000   0.000000   0.000000   0.000000
     9  C    0.000000   0.000000   0.000000   0.000000   0.000000   0.000000
    10  C    0.000000   0.000000   0.000000   0.000000   0.000000   0.000000
    11  C    0.000000   0.000000   0.000000   0.000000   0.000000   0.000000
    12  C    0.000000   0.000000   0.000000   0.000000   0.000000   0.000000
    13  C    3.983925   0.000000   0.000000   0.000000   0.000000   0.000000
    14  C    0.000000   3.801915   0.000000   0.000000   0.000000   0.000000
    15  C    0.000000   0.000000   3.938718   0.000000   0.000000   0.000000
    16  C    0.000000   0.000000   0.000000   4.115908   0.000000   0.000000
    17  C    0.000000   0.000000   0.000000   0.000000   4.173339   0.000000
    18  C    0.000000   0.000000   0.000000   0.000000   0.000000   3.904290
    19  C    0.000000   0.000000   0.000000   0.000000   0.000000   0.000000
    20  C    0.000000   0.000000   0.000000   0.000000   0.000000   0.000000
    21  C    0.000000   0.000000   0.000000   0.000000   0.000000   0.000000
    22  C    0.000000   0.000000   0.000000   0.000000   0.000000   0.000000
    23  S    0.000000   0.000000   0.000000   0.000000   0.000000   0.000000
    24  H    0.000000   0.000000   0.000000   0.000000   0.000000   0.000000
    25  H    0.000000   0.000000   0.000000   0.000000   0.000000   0.000000
    26  H    0.000000   0.000000   0.000000   0.000000   0.000000   0.000000
    27  H    0.000000   0.000000   0.000000   0.000000   0.000000   0.000000
    28  H    0.000000   0.000000   0.000000   0.000000   0.000000   0.000000
    29  H    0.000000   0.000000   0.000000   0.000000   0.000000   0.000000
    30  H    0.000000   0.000000   0.000000   0.000000   0.000000   0.000000
    31  H    0.000000   0.000000   0.000000   0.000000   0.000000   0.000000
    32  H    0.000000   0.000000   0.000000   0.000000   0.000000   0.000000
    33  H    0.000000   0.000000   0.000000   0.000000   0.000000   0.000000
    34  H    0.000000   0.000000   0.000000   0.000000   0.000000   0.000000
    35  H    0.000000   0.000000   0.000000   0.000000   0.000000   0.000000
    36  H    0.000000   0.000000   0.000000   0.000000   0.000000   0.000000
    37  H    0.000000   0.000000   0.000000   0.000000   0.000000   0.000000
    38  H    0.000000   0.000000   0.000000   0.000000   0.000000   0.000000
    39  H    0.000000   0.000000   0.000000   0.000000   0.000000   0.000000
    40  H    0.000000   0.000000   0.000000   0.000000   0.000000   0.000000
    41  H    0.000000   0.000000   0.000000   0.000000   0.000000   0.000000
             19         20         21         22         23         24
     1  N    0.000000   0.000000   0.000000   0.000000   0.000000   0.000000
     2  N    0.000000   0.000000   0.000000   0.000000   0.000000   0.000000
     3  N    0.000000   0.000000   0.000000   0.000000   0.000000   0.000000
     4  N    0.000000   0.000000   0.000000   0.000000   0.000000   0.000000
     5  N    0.000000   0.000000   0.000000   0.000000   0.000000   0.000000
     6  N    0.000000   0.000000   0.000000   0.000000   0.000000   0.000000
     7  C    0.000000   0.000000   0.000000   0.000000   0.000000   0.000000
     8  C    0.000000   0.000000   0.000000   0.000000   0.000000   0.000000
     9  C    0.000000   0.000000   0.000000   0.000000   0.000000   0.000000
    10  C    0.000000   0.000000   0.000000   0.000000   0.000000   0.000000
    11  C    0.000000   0.000000   0.000000   0.000000   0.000000   0.000000
    12  C    0.000000   0.000000   0.000000   0.000000   0.000000   0.000000
    13  C    0.000000   0.000000   0.000000   0.000000   0.000000   0.000000
    14  C    0.000000   0.000000   0.000000   0.000000   0.000000   0.000000
    15  C    0.000000   0.000000   0.000000   0.000000   0.000000   0.000000
    16  C    0.000000   0.000000   0.000000   0.000000   0.000000   0.000000
    17  C    0.000000   0.000000   0.000000   0.000000   0.000000   0.000000
    18  C    0.000000   0.000000   0.000000   0.000000   0.000000   0.000000
    19  C    4.054204   0.000000   0.000000   0.000000   0.000000   0.000000
    20  C    0.000000   4.054798   0.000000   0.000000   0.000000   0.000000
    21  C    0.000000   0.000000   4.167108   0.000000   0.000000   0.000000
    22  C    0.000000   0.000000   0.000000   4.145292   0.000000   0.000000
    23  S    0.000000   0.000000   0.000000   0.000000   5.642613   0.000000
    24  H    0.000000   0.000000   0.000000   0.000000   0.000000   0.893632
    25  H    0.000000   0.000000   0.000000   0.000000   0.000000   0.000000
    26  H    0.000000   0.000000   0.000000   0.000000   0.000000   0.000000
    27  H    0.000000   0.000000   0.000000   0.000000   0.000000   0.000000
    28  H    0.000000   0.000000   0.000000   0.000000   0.000000   0.000000
    29  H    0.000000   0.000000   0.000000   0.000000   0.000000   0.000000
    30  H    0.000000   0.000000   0.000000   0.000000   0.000000   0.000000
    31  H    0.000000   0.000000   0.000000   0.000000   0.000000   0.000000
    32  H    0.000000   0.000000   0.000000   0.000000   0.000000   0.000000
    33  H    0.000000   0.000000   0.000000   0.000000   0.000000   0.000000
    34  H    0.000000   0.000000   0.000000   0.000000   0.000000   0.000000
    35  H    0.000000   0.000000   0.000000   0.000000   0.000000   0.000000
    36  H    0.000000   0.000000   0.000000   0.000000   0.000000   0.000000
    37  H    0.000000   0.000000   0.000000   0.000000   0.000000   0.000000
    38  H    0.000000   0.000000   0.000000   0.000000   0.000000   0.000000
    39  H    0.000000   0.000000   0.000000   0.000000   0.000000   0.000000
    40  H    0.000000   0.000000   0.000000   0.000000   0.000000   0.000000
    41  H    0.000000   0.000000   0.000000   0.000000   0.000000   0.000000
             25         26         27         28         29         30
     1  N    0.000000   0.000000   0.000000   0.000000   0.000000   0.000000
     2  N    0.000000   0.000000   0.000000   0.000000   0.000000   0.000000
     3  N    0.000000   0.000000   0.000000   0.000000   0.000000   0.000000
     4  N    0.000000   0.000000   0.000000   0.000000   0.000000   0.000000
     5  N    0.000000   0.000000   0.000000   0.000000   0.000000   0.000000
     6  N    0.000000   0.000000   0.000000   0.000000   0.000000   0.000000
     7  C    0.000000   0.000000   0.000000   0.000000   0.000000   0.000000
     8  C    0.000000   0.000000   0.000000   0.000000   0.000000   0.000000
     9  C    0.000000   0.000000   0.000000   0.000000   0.000000   0.000000
    10  C    0.000000   0.000000   0.000000   0.000000   0.000000   0.000000
    11  C    0.000000   0.000000   0.000000   0.000000   0.000000   0.000000
    12  C    0.000000   0.000000   0.000000   0.000000   0.000000   0.000000
    13  C    0.000000   0.000000   0.000000   0.000000   0.000000   0.000000
    14  C    0.000000   0.000000   0.000000   0.000000   0.000000   0.000000
    15  C    0.000000   0.000000   0.000000   0.000000   0.000000   0.000000
    16  C    0.000000   0.000000   0.000000   0.000000   0.000000   0.000000
    17  C    0.000000   0.000000   0.000000   0.000000   0.000000   0.000000
    18  C    0.000000   0.000000   0.000000   0.000000   0.000000   0.000000
    19  C    0.000000   0.000000   0.000000   0.000000   0.000000   0.000000
    20  C    0.000000   0.000000   0.000000   0.000000   0.000000   0.000000
    21  C    0.000000   0.000000   0.000000   0.000000   0.000000   0.000000
    22  C    0.000000   0.000000   0.000000   0.000000   0.000000   0.000000
    23  S    0.000000   0.000000   0.000000   0.000000   0.000000   0.000000
    24  H    0.000000   0.000000   0.000000   0.000000   0.000000   0.000000
    25  H    0.908373   0.000000   0.000000   0.000000   0.000000   0.000000
    26  H    0.000000   0.910290   0.000000   0.000000   0.000000   0.000000
    27  H    0.000000   0.000000   0.767486   0.000000   0.000000   0.000000
    28  H    0.000000   0.000000   0.000000   0.768109   0.000000   0.000000
    29  H    0.000000   0.000000   0.000000   0.000000   0.758250   0.000000
    30  H    0.000000   0.000000   0.000000   0.000000   0.000000   0.849773
    31  H    0.000000   0.000000   0.000000   0.000000   0.000000   0.000000
    32  H    0.000000   0.000000   0.000000   0.000000   0.000000   0.000000
    33  H    0.000000   0.000000   0.000000   0.000000   0.000000   0.000000
    34  H    0.000000   0.000000   0.000000   0.000000   0.000000   0.000000
    35  H    0.000000   0.000000   0.000000   0.000000   0.000000   0.000000
    36  H    0.000000   0.000000   0.000000   0.000000   0.000000   0.000000
    37  H    0.000000   0.000000   0.000000   0.000000   0.000000   0.000000
    38  H    0.000000   0.000000   0.000000   0.000000   0.000000   0.000000
    39  H    0.000000   0.000000   0.000000   0.000000   0.000000   0.000000
    40  H    0.000000   0.000000   0.000000   0.000000   0.000000   0.000000
    41  H    0.000000   0.000000   0.000000   0.000000   0.000000   0.000000
             31         32         33         34         35         36
     1  N    0.000000   0.000000   0.000000   0.000000   0.000000   0.000000
     2  N    0.000000   0.000000   0.000000   0.000000   0.000000   0.000000
     3  N    0.000000   0.000000   0.000000   0.000000   0.000000   0.000000
     4  N    0.000000   0.000000   0.000000   0.000000   0.000000   0.000000
     5  N    0.000000   0.000000   0.000000   0.000000   0.000000   0.000000
     6  N    0.000000   0.000000   0.000000   0.000000   0.000000   0.000000
     7  C    0.000000   0.000000   0.000000   0.000000   0.000000   0.000000
     8  C    0.000000   0.000000   0.000000   0.000000   0.000000   0.000000
     9  C    0.000000   0.000000   0.000000   0.000000   0.000000   0.000000
    10  C    0.000000   0.000000   0.000000   0.000000   0.000000   0.000000
    11  C    0.000000   0.000000   0.000000   0.000000   0.000000   0.000000
    12  C    0.000000   0.000000   0.000000   0.000000   0.000000   0.000000
    13  C    0.000000   0.000000   0.000000   0.000000   0.000000   0.000000
    14  C    0.000000   0.000000   0.000000   0.000000   0.000000   0.000000
    15  C    0.000000   0.000000   0.000000   0.000000   0.000000   0.000000
    16  C    0.000000   0.000000   0.000000   0.000000   0.000000   0.000000
    17  C    0.000000   0.000000   0.000000   0.000000   0.000000   0.000000
    18  C    0.000000   0.000000   0.000000   0.000000   0.000000   0.000000
    19  C    0.000000   0.000000   0.000000   0.000000   0.000000   0.000000
    20  C    0.000000   0.000000   0.000000   0.000000   0.000000   0.000000
    21  C    0.000000   0.000000   0.000000   0.000000   0.000000   0.000000
    22  C    0.000000   0.000000   0.000000   0.000000   0.000000   0.000000
    23  S    0.000000   0.000000   0.000000   0.000000   0.000000   0.000000
    24  H    0.000000   0.000000   0.000000   0.000000   0.000000   0.000000
    25  H    0.000000   0.000000   0.000000   0.000000   0.000000   0.000000
    26  H    0.000000   0.000000   0.000000   0.000000   0.000000   0.000000
    27  H    0.000000   0.000000   0.000000   0.000000   0.000000   0.000000
    28  H    0.000000   0.000000   0.000000   0.000000   0.000000   0.000000
    29  H    0.000000   0.000000   0.000000   0.000000   0.000000   0.000000
    30  H    0.000000   0.000000   0.000000   0.000000   0.000000   0.000000
    31  H    0.838013   0.000000   0.000000   0.000000   0.000000   0.000000
    32  H    0.000000   0.843870   0.000000   0.000000   0.000000   0.000000
    33  H    0.000000   0.000000   0.868109   0.000000   0.000000   0.000000
    34  H    0.000000   0.000000   0.000000   0.922308   0.000000   0.000000
    35  H    0.000000   0.000000   0.000000   0.000000   0.919094   0.000000
    36  H    0.000000   0.000000   0.000000   0.000000   0.000000   0.946492
    37  H    0.000000   0.000000   0.000000   0.000000   0.000000   0.000000
    38  H    0.000000   0.000000   0.000000   0.000000   0.000000   0.000000
    39  H    0.000000   0.000000   0.000000   0.000000   0.000000   0.000000
    40  H    0.000000   0.000000   0.000000   0.000000   0.000000   0.000000
    41  H    0.000000   0.000000   0.000000   0.000000   0.000000   0.000000
             37         38         39         40         41
     1  N    0.000000   0.000000   0.000000   0.000000   0.000000
     2  N    0.000000   0.000000   0.000000   0.000000   0.000000
     3  N    0.000000   0.000000   0.000000   0.000000   0.000000
     4  N    0.000000   0.000000   0.000000   0.000000   0.000000
     5  N    0.000000   0.000000   0.000000   0.000000   0.000000
     6  N    0.000000   0.000000   0.000000   0.000000   0.000000
     7  C    0.000000   0.000000   0.000000   0.000000   0.000000
     8  C    0.000000   0.000000   0.000000   0.000000   0.000000
     9  C    0.000000   0.000000   0.000000   0.000000   0.000000
    10  C    0.000000   0.000000   0.000000   0.000000   0.000000
    11  C    0.000000   0.000000   0.000000   0.000000   0.000000
    12  C    0.000000   0.000000   0.000000   0.000000   0.000000
    13  C    0.000000   0.000000   0.000000   0.000000   0.000000
    14  C    0.000000   0.000000   0.000000   0.000000   0.000000
    15  C    0.000000   0.000000   0.000000   0.000000   0.000000
    16  C    0.000000   0.000000   0.000000   0.000000   0.000000
    17  C    0.000000   0.000000   0.000000   0.000000   0.000000
    18  C    0.000000   0.000000   0.000000   0.000000   0.000000
    19  C    0.000000   0.000000   0.000000   0.000000   0.000000
    20  C    0.000000   0.000000   0.000000   0.000000   0.000000
    21  C    0.000000   0.000000   0.000000   0.000000   0.000000
    22  C    0.000000   0.000000   0.000000   0.000000   0.000000
    23  S    0.000000   0.000000   0.000000   0.000000   0.000000
    24  H    0.000000   0.000000   0.000000   0.000000   0.000000
    25  H    0.000000   0.000000   0.000000   0.000000   0.000000
    26  H    0.000000   0.000000   0.000000   0.000000   0.000000
    27  H    0.000000   0.000000   0.000000   0.000000   0.000000
    28  H    0.000000   0.000000   0.000000   0.000000   0.000000
    29  H    0.000000   0.000000   0.000000   0.000000   0.000000
    30  H    0.000000   0.000000   0.000000   0.000000   0.000000
    31  H    0.000000   0.000000   0.000000   0.000000   0.000000
    32  H    0.000000   0.000000   0.000000   0.000000   0.000000
    33  H    0.000000   0.000000   0.000000   0.000000   0.000000
    34  H    0.000000   0.000000   0.000000   0.000000   0.000000
    35  H    0.000000   0.000000   0.000000   0.000000   0.000000
    36  H    0.000000   0.000000   0.000000   0.000000   0.000000
    37  H    0.919439   0.000000   0.000000   0.000000   0.000000
    38  H    0.000000   0.945866   0.000000   0.000000   0.000000
    39  H    0.000000   0.000000   0.922521   0.000000   0.000000
    40  H    0.000000   0.000000   0.000000   0.868656   0.000000
    41  H    0.000000   0.000000   0.000000   0.000000   0.870433
 Mulliken atomic charges:
              1
     1  N   -0.217799
     2  N   -0.357223
     3  N   -0.250096
     4  N   -0.272152
     5  N   -0.321586
     6  N   -0.237291
     7  C   -0.147384
     8  C    0.056410
     9  C   -0.053088
    10  C   -0.368771
    11  C    0.165842
    12  C   -0.294039
    13  C    0.016075
    14  C    0.198085
    15  C    0.061282
    16  C   -0.115908
    17  C   -0.173339
    18  C    0.095710
    19  C   -0.054204
    20  C   -0.054798
    21  C   -0.167108
    22  C   -0.145292
    23  S    0.357387
    24  H    0.106368
    25  H    0.091627
    26  H    0.089710
    27  H    0.232514
    28  H    0.231891
    29  H    0.241750
    30  H    0.150227
    31  H    0.161987
    32  H    0.156130
    33  H    0.131891
    34  H    0.077692
    35  H    0.080906
    36  H    0.053508
    37  H    0.080561
    38  H    0.054134
    39  H    0.077479
    40  H    0.131344
    41  H    0.129567
 Sum of Mulliken atomic charges =   0.00000
 Mulliken charges with hydrogens summed into heavy atoms:
              1
     1  N   -0.217799
     2  N    0.107181
     3  N   -0.250096
     4  N   -0.030401
     5  N   -0.321586
     6  N   -0.237291
     7  C    0.140321
     8  C    0.056410
     9  C   -0.053088
    10  C   -0.368771
    11  C    0.165842
    12  C   -0.143813
    13  C    0.178062
    14  C    0.198085
    15  C    0.061282
    16  C    0.040222
    17  C   -0.041448
    18  C    0.095710
    19  C    0.157902
    20  C    0.157376
    21  C   -0.035764
    22  C   -0.015725
    23  S    0.357387
 Sum of Mulliken charges with hydrogens summed into heavy atoms =   0.00000
 Charge=              0.0000 electrons
 Dipole moment (field-independent basis, Debye):
    X=             -1.4305    Y=             -1.5769    Z=              1.5445  Tot=              2.6303
 N-N= 9.702681967668D+02 E-N=-1.624334317858D+03  KE=-2.317502752908D+02
 Calling FoFJK, ICntrl=      2127 FMM=F ISym2X=0 I1Cent= 0 IOpClX= 0 NMat=1 NMatS=1 NMatT=0.
 ***** Axes restored to original set *****
 -------------------------------------------------------------------
 Center     Atomic                   Forces (Hartrees/Bohr)
 Number     Number              X              Y              Z
 -------------------------------------------------------------------
      1        7           0.009984215   -0.081241285   -0.029040898
      2        7           0.035631284    0.001944247   -0.033938326
      3        7           0.017154974    0.060077531    0.003362663
      4        7          -0.012928207    0.013557195    0.014174491
      5        7           0.003049930   -0.010829270    0.000988156
      6        7           0.020465554   -0.027779781   -0.022005254
      7        6           0.007068318    0.025345785    0.000364767
      8        6          -0.076645496    0.016569655    0.068459239
      9        6           0.051173793    0.053442013   -0.033293809
     10        6          -0.007643644    0.025993456    0.015628613
     11        6           0.013846376   -0.053643375   -0.024139266
     12        6           0.007649556    0.003562415   -0.004670286
     13        6          -0.019457856   -0.019335733    0.008878438
     14        6          -0.024328780   -0.032192172    0.005681879
     15        6           0.026054467    0.019838276   -0.011948264
     16        6          -0.010695311   -0.013166852    0.002293287
     17        6           0.005599882    0.013619557    0.002237443
     18        6          -0.024808049   -0.035867938   -0.003755647
     19        6          -0.005683383    0.032844312    0.032879136
     20        6           0.032699195    0.012590088   -0.028302372
     21        6           0.005240302    0.011505828   -0.001106709
     22        6          -0.012576238   -0.017737156    0.005131546
     23       16          -0.019051454    0.008261036    0.015775713
     24        1          -0.004468448    0.010761059    0.019008771
     25        1           0.014734029   -0.016872090   -0.002234064
     26        1          -0.015334059    0.002814512   -0.014929776
     27        1          -0.017428491   -0.013750827    0.014455134
     28        1           0.000205423    0.007615209    0.006799768
     29        1           0.000561331   -0.006975024   -0.003950164
     30        1           0.010595028    0.004470042   -0.005820568
     31        1          -0.000355745    0.015421725    0.004436182
     32        1           0.013632093    0.004162399   -0.013047570
     33        1           0.002489461   -0.011038185   -0.011117887
     34        1          -0.009161132   -0.018109873    0.011514512
     35        1           0.023104602    0.003188677   -0.001483279
     36        1          -0.014056860    0.009552451   -0.018280795
     37        1          -0.001929782   -0.022011120   -0.005232400
     38        1          -0.018423756    0.014367189   -0.007743940
     39        1           0.009997870    0.005847178    0.020482409
     40        1          -0.011242106   -0.004694014    0.010988817
     41        1          -0.004718887    0.007892859    0.012500307
 -------------------------------------------------------------------
 Cartesian Forces:  Max     0.081241285 RMS     0.021726202

 GradGradGradGradGradGradGradGradGradGradGradGradGradGradGradGradGradGrad
 Berny optimization.
 Internal  Forces:  Max     0.093765942 RMS     0.014469888
 Search for a local minimum.
 Step number   1 out of a maximum of  213
 All quantities printed in internal units (Hartrees-Bohrs-Radians)
 Mixed Optimization -- RFO/linear search
 Second derivative matrix not updated -- first step.
     Eigenvalues ---    0.00563   0.00740   0.00812   0.00862   0.01151
     Eigenvalues ---    0.01294   0.01301   0.01369   0.01597   0.01639
     Eigenvalues ---    0.01655   0.01709   0.01723   0.01830   0.01976
     Eigenvalues ---    0.02026   0.02062   0.02102   0.02109   0.02117
     Eigenvalues ---    0.02135   0.02140   0.02145   0.02174   0.02183
     Eigenvalues ---    0.02193   0.02214   0.02227   0.02235   0.02270
     Eigenvalues ---    0.02555   0.02910   0.06840   0.06933   0.07085
     Eigenvalues ---    0.07180   0.07215   0.07336   0.15991   0.15994
     Eigenvalues ---    0.15997   0.15997   0.15999   0.15999   0.16000
     Eigenvalues ---    0.16000   0.16000   0.16000   0.16000   0.16000
     Eigenvalues ---    0.16000   0.16000   0.16000   0.16000   0.16000
     Eigenvalues ---    0.16000   0.22000   0.22003   0.22413   0.22959
     Eigenvalues ---    0.23637   0.23997   0.24139   0.24427   0.24982
     Eigenvalues ---    0.24991   0.24991   0.24994   0.24995   0.24997
     Eigenvalues ---    0.24999   0.25000   0.25000   0.25000   0.29730
     Eigenvalues ---    0.30820   0.32173   0.32335   0.34705   0.34721
     Eigenvalues ---    0.34734   0.34747   0.34752   0.34763   0.34797
     Eigenvalues ---    0.34843   0.34931   0.35808   0.35854   0.36102
     Eigenvalues ---    0.36158   0.36169   0.36241   0.36600   0.36620
     Eigenvalues ---    0.41743   0.41801   0.42031   0.42189   0.43275
     Eigenvalues ---    0.44134   0.44455   0.45011   0.45323   0.45711
     Eigenvalues ---    0.45761   0.45843   0.46467   0.46613   0.46948
     Eigenvalues ---    0.50430   0.51665   0.53157   0.53508   0.53705
     Eigenvalues ---    0.59536   0.646991000.000001000.000001000.00000
     Eigenvalues --- 1000.000001000.000001000.000001000.000001000.00000
     Eigenvalues --- 1000.000001000.000001000.000001000.000001000.00000
     Eigenvalues --- 1000.000001000.000001000.000001000.000001000.00000
     Eigenvalues --- 1000.000001000.000001000.000001000.000001000.00000
     Eigenvalues --- 1000.000001000.000001000.000001000.000001000.00000
     Eigenvalues --- 1000.000001000.000001000.000001000.000001000.00000
     Eigenvalues --- 1000.000001000.000001000.000001000.000001000.00000
     Eigenvalues --- 1000.000001000.000001000.000001000.000001000.00000
     Eigenvalues --- 1000.000001000.000001000.000001000.000001000.00000
     Eigenvalues --- 1000.000001000.000001000.000001000.000001000.00000
     Eigenvalues --- 1000.000001000.000001000.000001000.000001000.00000
     Eigenvalues --- 1000.000001000.000001000.000001000.000001000.00000
     Eigenvalues --- 1000.000001000.000001000.000001000.000001000.00000
     Eigenvalues --- 1000.000001000.000001000.000001000.000001000.00000
     Eigenvalues --- 1000.000001000.000001000.000001000.000001000.00000
     Eigenvalues --- 1000.000001000.000001000.000001000.000001000.00000
     Eigenvalues --- 1000.000001000.000001000.00000
 RFO step:  Lambda=-8.25926447D-02 EMin= 5.62999471D-03
 Linear search not attempted -- first point.
 Maximum step size (   0.300) exceeded in Quadratic search.
    -- Step size scaled by   0.710
 Iteration  1 RMS(Cart)=  0.07142801 RMS(Int)=  0.00089629
 Iteration  2 RMS(Cart)=  0.00197078 RMS(Int)=  0.00007186
 Iteration  3 RMS(Cart)=  0.00000105 RMS(Int)=  0.00007186
 Iteration  4 RMS(Cart)=  0.00000000 RMS(Int)=  0.00007186
 Variable       Old X    -DE/DX   Delta X   Delta X   Delta X     New X
                                 (Linear)    (Quad)   (Total)
    R1        2.49486   0.09377   0.00000   0.09880   0.09876   2.59362
    R2        2.45384   0.08626   0.00000   0.08575   0.08584   2.53968
    R3        2.56807   0.02262   0.00000   0.02615   0.02615   2.59422
    R4        1.92995  -0.02530   0.00000  -0.03427  -0.03427   1.89567
    R5        1.90308  -0.01004   0.00000  -0.01302  -0.01302   1.89005
    R6        2.56526  -0.01533   0.00000  -0.01806  -0.01809   2.54717
    R7        2.56130   0.04978   0.00000   0.05840   0.05839   2.61969
    R8        2.64309   0.00256   0.00000   0.00335   0.00335   2.64645
    R9        2.65914  -0.00522   0.00000  -0.00703  -0.00703   2.65211
   R10        1.91159  -0.00711   0.00000  -0.00935  -0.00935   1.90223
   R11        2.69178  -0.03359   0.00000  -0.04762  -0.04762   2.64415
   R12        2.77135  -0.03683   0.00000  -0.05886  -0.05886   2.71249
   R13        2.76423  -0.03158   0.00000  -0.04994  -0.04994   2.71429
   R14        2.56437   0.00162   0.00000   0.00226   0.00229   2.56666
   R15        2.56418   0.03887   0.00000   0.04654   0.04655   2.61073
   R16        2.86358  -0.01600   0.00000  -0.02907  -0.02907   2.83451
   R17        2.05786   0.02124   0.00000   0.03491   0.03491   2.09278
   R18        2.06109   0.02150   0.00000   0.03549   0.03549   2.09658
[...]
             13         14         15         16         17         18
     1  N    0.000000   0.000000   0.000000   0.000000   0.000000   0.000000
     2  N    0.000000   0.000000   0.000000   0.000000   0.000000   0.000000
     3  N    0.000000   0.000000   0.000000   0.000000   0.000000   0.000000
     4  N    0.000000   0.000000   0.000000   0.000000   0.000000   0.000000
     5  N    0.000000   0.000000   0.000000   0.000000   0.000000   0.000000
     6  N    0.000000   0.000000   0.000000   0.000000   0.000000   0.000000
     7  C    0.000000   0.000000   0.000000   0.000000   0.000000   0.000000
     8  C    0.000000   0.000000   0.000000   0.000000   0.000000   0.000000
     9  C    0.000000   0.000000   0.000000   0.000000   0.000000   0.000000
    10  C    0.000000   0.000000   0.000000   0.000000   0.000000   0.000000
    11  C    0.000000   0.000000   0.000000   0.000000   0.000000   0.000000
    12  C    0.000000   0.000000   0.000000   0.000000   0.000000   0.000000
    13  C    3.997161   0.000000   0.000000   0.000000   0.000000   0.000000
    14  C    0.000000   3.849181   0.000000   0.000000   0.000000   0.000000
    15  C    0.000000   0.000000   4.003626   0.000000   0.000000   0.000000
    16  C    0.000000   0.000000   0.000000   4.071219   0.000000   0.000000
    17  C    0.000000   0.000000   0.000000   0.000000   4.183337   0.000000
    18  C    0.000000   0.000000   0.000000   0.000000   0.000000   3.927980
    19  C    0.000000   0.000000   0.000000   0.000000   0.000000   0.000000
    20  C    0.000000   0.000000   0.000000   0.000000   0.000000   0.000000
    21  C    0.000000   0.000000   0.000000   0.000000   0.000000   0.000000
    22  C    0.000000   0.000000   0.000000   0.000000   0.000000   0.000000
    23  S    0.000000   0.000000   0.000000   0.000000   0.000000   0.000000
    24  H    0.000000   0.000000   0.000000   0.000000   0.000000   0.000000
    25  H    0.000000   0.000000   0.000000   0.000000   0.000000   0.000000
    26  H    0.000000   0.000000   0.000000   0.000000   0.000000   0.000000
    27  H    0.000000   0.000000   0.000000   0.000000   0.000000   0.000000
    28  H    0.000000   0.000000   0.000000   0.000000   0.000000   0.000000
    29  H    0.000000   0.000000   0.000000   0.000000   0.000000   0.000000
    30  H    0.000000   0.000000   0.000000   0.000000   0.000000   0.000000
    31  H    0.000000   0.000000   0.000000   0.000000   0.000000   0.000000
    32  H    0.000000   0.000000   0.000000   0.000000   0.000000   0.000000
    33  H    0.000000   0.000000   0.000000   0.000000   0.000000   0.000000
    34  H    0.000000   0.000000   0.000000   0.000000   0.000000   0.000000
    35  H    0.000000   0.000000   0.000000   0.000000   0.000000   0.000000
    36  H    0.000000   0.000000   0.000000   0.000000   0.000000   0.000000
    37  H    0.000000   0.000000   0.000000   0.000000   0.000000   0.000000
    38  H    0.000000   0.000000   0.000000   0.000000   0.000000   0.000000
    39  H    0.000000   0.000000   0.000000   0.000000   0.000000   0.000000
    40  H    0.000000   0.000000   0.000000   0.000000   0.000000   0.000000
    41  H    0.000000   0.000000   0.000000   0.000000   0.000000   0.000000
             19         20         21         22         23         24
     1  N    0.000000   0.000000   0.000000   0.000000   0.000000   0.000000
     2  N    0.000000   0.000000   0.000000   0.000000   0.000000   0.000000
     3  N    0.000000   0.000000   0.000000   0.000000   0.000000   0.000000
     4  N    0.000000   0.000000   0.000000   0.000000   0.000000   0.000000
     5  N    0.000000   0.000000   0.000000   0.000000   0.000000   0.000000
     6  N    0.000000   0.000000   0.000000   0.000000   0.000000   0.000000
     7  C    0.000000   0.000000   0.000000   0.000000   0.000000   0.000000
     8  C    0.000000   0.000000   0.000000   0.000000   0.000000   0.000000
     9  C    0.000000   0.000000   0.000000   0.000000   0.000000   0.000000
    10  C    0.000000   0.000000   0.000000   0.000000   0.000000   0.000000
    11  C    0.000000   0.000000   0.000000   0.000000   0.000000   0.000000
    12  C    0.000000   0.000000   0.000000   0.000000   0.000000   0.000000
    13  C    0.000000   0.000000   0.000000   0.000000   0.000000   0.000000
    14  C    0.000000   0.000000   0.000000   0.000000   0.000000   0.000000
    15  C    0.000000   0.000000   0.000000   0.000000   0.000000   0.000000
    16  C    0.000000   0.000000   0.000000   0.000000   0.000000   0.000000
    17  C    0.000000   0.000000   0.000000   0.000000   0.000000   0.000000
    18  C    0.000000   0.000000   0.000000   0.000000   0.000000   0.000000
    19  C    4.093004   0.000000   0.000000   0.000000   0.000000   0.000000
    20  C    0.000000   4.092781   0.000000   0.000000   0.000000   0.000000
    21  C    0.000000   0.000000   4.175726   0.000000   0.000000   0.000000
    22  C    0.000000   0.000000   0.000000   4.127284   0.000000   0.000000
    23  S    0.000000   0.000000   0.000000   0.000000   5.542895   0.000000
    24  H    0.000000   0.000000   0.000000   0.000000   0.000000   0.896094
    25  H    0.000000   0.000000   0.000000   0.000000   0.000000   0.000000
    26  H    0.000000   0.000000   0.000000   0.000000   0.000000   0.000000
    27  H    0.000000   0.000000   0.000000   0.000000   0.000000   0.000000
    28  H    0.000000   0.000000   0.000000   0.000000   0.000000   0.000000
    29  H    0.000000   0.000000   0.000000   0.000000   0.000000   0.000000
    30  H    0.000000   0.000000   0.000000   0.000000   0.000000   0.000000
    31  H    0.000000   0.000000   0.000000   0.000000   0.000000   0.000000
    32  H    0.000000   0.000000   0.000000   0.000000   0.000000   0.000000
    33  H    0.000000   0.000000   0.000000   0.000000   0.000000   0.000000
    34  H    0.000000   0.000000   0.000000   0.000000   0.000000   0.000000
    35  H    0.000000   0.000000   0.000000   0.000000   0.000000   0.000000
    36  H    0.000000   0.000000   0.000000   0.000000   0.000000   0.000000
    37  H    0.000000   0.000000   0.000000   0.000000   0.000000   0.000000
    38  H    0.000000   0.000000   0.000000   0.000000   0.000000   0.000000
    39  H    0.000000   0.000000   0.000000   0.000000   0.000000   0.000000
    40  H    0.000000   0.000000   0.000000   0.000000   0.000000   0.000000
    41  H    0.000000   0.000000   0.000000   0.000000   0.000000   0.000000
             25         26         27         28         29         30
     1  N    0.000000   0.000000   0.000000   0.000000   0.000000   0.000000
     2  N    0.000000   0.000000   0.000000   0.000000   0.000000   0.000000
     3  N    0.000000   0.000000   0.000000   0.000000   0.000000   0.000000
     4  N    0.000000   0.000000   0.000000   0.000000   0.000000   0.000000
     5  N    0.000000   0.000000   0.000000   0.000000   0.000000   0.000000
     6  N    0.000000   0.000000   0.000000   0.000000   0.000000   0.000000
     7  C    0.000000   0.000000   0.000000   0.000000   0.000000   0.000000
     8  C    0.000000   0.000000   0.000000   0.000000   0.000000   0.000000
     9  C    0.000000   0.000000   0.000000   0.000000   0.000000   0.000000
    10  C    0.000000   0.000000   0.000000   0.000000   0.000000   0.000000
    11  C    0.000000   0.000000   0.000000   0.000000   0.000000   0.000000
    12  C    0.000000   0.000000   0.000000   0.000000   0.000000   0.000000
    13  C    0.000000   0.000000   0.000000   0.000000   0.000000   0.000000
    14  C    0.000000   0.000000   0.000000   0.000000   0.000000   0.000000
    15  C    0.000000   0.000000   0.000000   0.000000   0.000000   0.000000
    16  C    0.000000   0.000000   0.000000   0.000000   0.000000   0.000000
    17  C    0.000000   0.000000   0.000000   0.000000   0.000000   0.000000
    18  C    0.000000   0.000000   0.000000   0.000000   0.000000   0.000000
    19  C    0.000000   0.000000   0.000000   0.000000   0.000000   0.000000
    20  C    0.000000   0.000000   0.000000   0.000000   0.000000   0.000000
    21  C    0.000000   0.000000   0.000000   0.000000   0.000000   0.000000
    22  C    0.000000   0.000000   0.000000   0.000000   0.000000   0.000000
    23  S    0.000000   0.000000   0.000000   0.000000   0.000000   0.000000
    24  H    0.000000   0.000000   0.000000   0.000000   0.000000   0.000000
    25  H    0.904683   0.000000   0.000000   0.000000   0.000000   0.000000
    26  H    0.000000   0.890335   0.000000   0.000000   0.000000   0.000000
    27  H    0.000000   0.000000   0.806031   0.000000   0.000000   0.000000
    28  H    0.000000   0.000000   0.000000   0.794980   0.000000   0.000000
    29  H    0.000000   0.000000   0.000000   0.000000   0.771577   0.000000
    30  H    0.000000   0.000000   0.000000   0.000000   0.000000   0.846021
    31  H    0.000000   0.000000   0.000000   0.000000   0.000000   0.000000
    32  H    0.000000   0.000000   0.000000   0.000000   0.000000   0.000000
    33  H    0.000000   0.000000   0.000000   0.000000   0.000000   0.000000
    34  H    0.000000   0.000000   0.000000   0.000000   0.000000   0.000000
    35  H    0.000000   0.000000   0.000000   0.000000   0.000000   0.000000
    36  H    0.000000   0.000000   0.000000   0.000000   0.000000   0.000000
    37  H    0.000000   0.000000   0.000000   0.000000   0.000000   0.000000
    38  H    0.000000   0.000000   0.000000   0.000000   0.000000   0.000000
    39  H    0.000000   0.000000   0.000000   0.000000   0.000000   0.000000
    40  H    0.000000   0.000000   0.000000   0.000000   0.000000   0.000000
    41  H    0.000000   0.000000   0.000000   0.000000   0.000000   0.000000
             31         32         33         34         35         36
     1  N    0.000000   0.000000   0.000000   0.000000   0.000000   0.000000
     2  N    0.000000   0.000000   0.000000   0.000000   0.000000   0.000000
     3  N    0.000000   0.000000   0.000000   0.000000   0.000000   0.000000
     4  N    0.000000   0.000000   0.000000   0.000000   0.000000   0.000000
     5  N    0.000000   0.000000   0.000000   0.000000   0.000000   0.000000
     6  N    0.000000   0.000000   0.000000   0.000000   0.000000   0.000000
     7  C    0.000000   0.000000   0.000000   0.000000   0.000000   0.000000
     8  C    0.000000   0.000000   0.000000   0.000000   0.000000   0.000000
     9  C    0.000000   0.000000   0.000000   0.000000   0.000000   0.000000
    10  C    0.000000   0.000000   0.000000   0.000000   0.000000   0.000000
    11  C    0.000000   0.000000   0.000000   0.000000   0.000000   0.000000
    12  C    0.000000   0.000000   0.000000   0.000000   0.000000   0.000000
    13  C    0.000000   0.000000   0.000000   0.000000   0.000000   0.000000
    14  C    0.000000   0.000000   0.000000   0.000000   0.000000   0.000000
    15  C    0.000000   0.000000   0.000000   0.000000   0.000000   0.000000
    16  C    0.000000   0.000000   0.000000   0.000000   0.000000   0.000000
    17  C    0.000000   0.000000   0.000000   0.000000   0.000000   0.000000
    18  C    0.000000   0.000000   0.000000   0.000000   0.000000   0.000000
    19  C    0.000000   0.000000   0.000000   0.000000   0.000000   0.000000
    20  C    0.000000   0.000000   0.000000   0.000000   0.000000   0.000000
    21  C    0.000000   0.000000   0.000000   0.000000   0.000000   0.000000
    22  C    0.000000   0.000000   0.000000   0.000000   0.000000   0.000000
    23  S    0.000000   0.000000   0.000000   0.000000   0.000000   0.000000
    24  H    0.000000   0.000000   0.000000   0.000000   0.000000   0.000000
    25  H    0.000000   0.000000   0.000000   0.000000   0.000000   0.000000
    26  H    0.000000   0.000000   0.000000   0.000000   0.000000   0.000000
    27  H    0.000000   0.000000   0.000000   0.000000   0.000000   0.000000
    28  H    0.000000   0.000000   0.000000   0.000000   0.000000   0.000000
    29  H    0.000000   0.000000   0.000000   0.000000   0.000000   0.000000
    30  H    0.000000   0.000000   0.000000   0.000000   0.000000   0.000000
    31  H    0.837434   0.000000   0.000000   0.000000   0.000000   0.000000
    32  H    0.000000   0.847575   0.000000   0.000000   0.000000   0.000000
    33  H    0.000000   0.000000   0.864524   0.000000   0.000000   0.000000
    34  H    0.000000   0.000000   0.000000   0.915078   0.000000   0.000000
    35  H    0.000000   0.000000   0.000000   0.000000   0.913312   0.000000
    36  H    0.000000   0.000000   0.000000   0.000000   0.000000   0.939509
    37  H    0.000000   0.000000   0.000000   0.000000   0.000000   0.000000
    38  H    0.000000   0.000000   0.000000   0.000000   0.000000   0.000000
    39  H    0.000000   0.000000   0.000000   0.000000   0.000000   0.000000
    40  H    0.000000   0.000000   0.000000   0.000000   0.000000   0.000000
    41  H    0.000000   0.000000   0.000000   0.000000   0.000000   0.000000
             37         38         39         40         41
     1  N    0.000000   0.000000   0.000000   0.000000   0.000000
     2  N    0.000000   0.000000   0.000000   0.000000   0.000000
     3  N    0.000000   0.000000   0.000000   0.000000   0.000000
     4  N    0.000000   0.000000   0.000000   0.000000   0.000000
     5  N    0.000000   0.000000   0.000000   0.000000   0.000000
     6  N    0.000000   0.000000   0.000000   0.000000   0.000000
     7  C    0.000000   0.000000   0.000000   0.000000   0.000000
     8  C    0.000000   0.000000   0.000000   0.000000   0.000000
     9  C    0.000000   0.000000   0.000000   0.000000   0.000000
    10  C    0.000000   0.000000   0.000000   0.000000   0.000000
    11  C    0.000000   0.000000   0.000000   0.000000   0.000000
    12  C    0.000000   0.000000   0.000000   0.000000   0.000000
    13  C    0.000000   0.000000   0.000000   0.000000   0.000000
    14  C    0.000000   0.000000   0.000000   0.000000   0.000000
    15  C    0.000000   0.000000   0.000000   0.000000   0.000000
    16  C    0.000000   0.000000   0.000000   0.000000   0.000000
    17  C    0.000000   0.000000   0.000000   0.000000   0.000000
    18  C    0.000000   0.000000   0.000000   0.000000   0.000000
    19  C    0.000000   0.000000   0.000000   0.000000   0.000000
    20  C    0.000000   0.000000   0.000000   0.000000   0.000000
    21  C    0.000000   0.000000   0.000000   0.000000   0.000000
    22  C    0.000000   0.000000   0.000000   0.000000   0.000000
    23  S    0.000000   0.000000   0.000000   0.000000   0.000000
    24  H    0.000000   0.000000   0.000000   0.000000   0.000000
    25  H    0.000000   0.000000   0.000000   0.000000   0.000000
    26  H    0.000000   0.000000   0.000000   0.000000   0.000000
    27  H    0.000000   0.000000   0.000000   0.000000   0.000000
    28  H    0.000000   0.000000   0.000000   0.000000   0.000000
    29  H    0.000000   0.000000   0.000000   0.000000   0.000000
    30  H    0.000000   0.000000   0.000000   0.000000   0.000000
    31  H    0.000000   0.000000   0.000000   0.000000   0.000000
    32  H    0.000000   0.000000   0.000000   0.000000   0.000000
    33  H    0.000000   0.000000   0.000000   0.000000   0.000000
    34  H    0.000000   0.000000   0.000000   0.000000   0.000000
    35  H    0.000000   0.000000   0.000000   0.000000   0.000000
    36  H    0.000000   0.000000   0.000000   0.000000   0.000000
    37  H    0.914807   0.000000   0.000000   0.000000   0.000000
    38  H    0.000000   0.940192   0.000000   0.000000   0.000000
    39  H    0.000000   0.000000   0.914283   0.000000   0.000000
    40  H    0.000000   0.000000   0.000000   0.865652   0.000000
    41  H    0.000000   0.000000   0.000000   0.000000   0.869958
 Mulliken atomic charges:
              1
     1  N   -0.182878
     2  N   -0.291227
     3  N   -0.226934
     4  N   -0.215629
     5  N   -0.253462
     6  N   -0.208985
     7  C   -0.155859
     8  C    0.029331
     9  C   -0.142129
    10  C   -0.404722
    11  C    0.146081
    12  C   -0.297347
    13  C    0.002839
    14  C    0.150819
    15  C   -0.003626
    16  C   -0.071219
    17  C   -0.183337
    18  C    0.072020
    19  C   -0.093004
    20  C   -0.092781
    21  C   -0.175726
    22  C   -0.127284
    23  S    0.457105
    24  H    0.103906
    25  H    0.095317
    26  H    0.109665
    27  H    0.193969
    28  H    0.205020
    29  H    0.228423
    30  H    0.153979
    31  H    0.162566
    32  H    0.152425
    33  H    0.135476
    34  H    0.084922
    35  H    0.086688
    36  H    0.060491
    37  H    0.085193
    38  H    0.059808
    39  H    0.085717
    40  H    0.134348
    41  H    0.130042
 Sum of Mulliken atomic charges =   0.00000
 Mulliken charges with hydrogens summed into heavy atoms:
              1
     1  N   -0.182878
     2  N    0.107762
     3  N   -0.226934
     4  N    0.012794
     5  N   -0.253462
     6  N   -0.208985
     7  C    0.153028
     8  C    0.029331
     9  C   -0.142129
    10  C   -0.404722
    11  C    0.146081
    12  C   -0.143368
    13  C    0.165405
    14  C    0.150819
    15  C   -0.003626
    16  C    0.081206
    17  C   -0.047862
    18  C    0.072020
    19  C    0.139097
    20  C    0.137937
    21  C   -0.041378
    22  C    0.002758
    23  S    0.457105
 Sum of Mulliken charges with hydrogens summed into heavy atoms =   0.00000
 Charge=              0.0000 electrons
 Dipole moment (field-independent basis, Debye):
    X=              0.1164    Y=             -1.1780    Z=              1.0484  Tot=              1.5813
 N-N= 9.796296039462D+02 E-N=-1.643597320105D+03  KE=-2.315629935091D+02
 1\1\GINC-B41\FOpt\RAM1\ZDO\C16H18N6S1\RUPAKHETIC\28-Mar-2018\0\\# opt 
 ram1\\Mol\\0,1\N,1.294683539,-8.8532397663,26.0616541079\N,3.231609684
 1,-8.051789152,24.8162307376\N,-2.1354202513,-4.3385164199,29.27855500
 77\N,-3.8619006715,-5.9766907766,29.1868225776\N,-5.6391937089,-11.358
 4009434,29.3864709659\N,-1.738478091,-6.5027631484,28.171308443\C,-0.6
 606447404,-9.2153140873,27.5596282733\C,0.3218678325,-8.3228610788,26.
 8988129874\C,2.0886161279,-7.8671827689,25.5880903591\C,0.3688107513,-
 6.9321385119,27.043964067\C,-0.5063928323,-6.067076856,27.8098367851\C
 ,-0.0419165491,-4.7709079442,28.1506558728\C,-0.9109619969,-3.95639036
 42,28.8916068298\C,-2.5290129922,-5.617189754,28.8852949315\C,-4.26589
 57498,-7.3341360735,29.2350946411\C,-4.2502284914,-8.1459819309,28.084
 8385142\C,-4.7261045617,-9.4491093638,28.128417975\C,-5.2407580133,-10
 .0079901025,29.3223273569\C,-5.9174550955,-12.0194840911,28.1364591079
 \C,-6.4653081489,-11.7459322439,30.5017795385\C,-5.2691162185,-9.17873
 64687,30.4692118499\C,-4.7837610195,-7.8803317386,30.4276792005\S,1.65
 65545516,-6.280842971,26.1544536614\H,-0.6734784363,-9.008505231,28.65
 90789501\H,-0.4164036565,-10.2946545626,27.4009062995\H,-1.6851622821,
 -9.0162421843,27.1522964314\H,3.3053719649,-7.4029749323,24.0614595873
 \H,3.3999359926,-8.9963097973,24.5342623395\H,-4.2851185967,-5.4071282
 148,29.8940958284\H,0.956529205,-4.4263820654,27.859271785\H,-0.610414
 337,-2.9386622783,29.2037385984\H,-3.858557921,-7.7544628511,27.132006
 3193\H,-4.6890786826,-10.0409409851,27.2011855956\H,-6.3174014317,-13.
 049292058,28.3305771288\H,-4.9595059582,-12.1204889182,27.5586771696\H
 ,-6.6605617182,-11.4590473014,27.5059256561\H,-6.7933257678,-12.811784
 7499,30.3812301238\H,-7.3789196235,-11.0996984712,30.6096598377\H,-5.8
 594760916,-11.6720759019,31.4447522706\H,-5.6689848011,-9.5516075811,3
 1.4241330594\H,-4.8180412123,-7.2747353603,31.3475492284\\Version=EM64
 L-G09RevA.02\State=1-A\HF=0.207491\RMSD=4.521e-09\RMSF=5.414e-06\Dipol
 e=-0.1314285,-0.3090915,-0.5236665\PG=C01 [X(C16H18N6S1)]\\@


 IF GOD HAD MEANT MAN TO SEE THE SUN RISE, HE
 WOULD HAVE SCHEDULED IT FOR A LATER HOUR.
 Job cpu time:  0 days  0 hours  0 minutes 19.7 seconds.
 File lengths (MBytes):  RWF=      9 Int=      0 D2E=      0 Chk=      4 Scr=      1
 Normal termination of Gaussian 09 at Wed Mar 28 15:25:30 2018.
