 Entering Gaussian System, Link 0=/homes/huanglei/prog/g09/g09
 Initial command:
 /homes/huanglei/prog/g09/l1.exe /scratch/1867310.bmgt1.lcrc.anl.gov/3/Gau-19846.inp -scrdir=/scratch/1867310.bmgt1.lcrc.anl.gov/3/
 Entering Link 1 = /homes/huanglei/prog/g09/l1.exe PID=     19848.
  
 Copyright (c) 1988,1990,1992,1993,1995,1998,2003,2009, Gaussian, Inc.
                  All Rights Reserved.
  
 This is part of the Gaussian(R) 09 program.  It is based on
 the Gaussian(R) 03 system (copyright 2003, Gaussian, Inc.),
 the Gaussian(R) 98 system (copyright 1998, Gaussian, Inc.),
 the Gaussian(R) 94 system (copyright 1995, Gaussian, Inc.),
 the Gaussian 92(TM) system (copyright 1992, Gaussian, Inc.),
 the Gaussian 90(TM) system (copyright 1990, Gaussian, Inc.),
 the Gaussian 88(TM) system (copyright 1988, Gaussian, Inc.),
 the Gaussian 86(TM) system (copyright 1986, Carnegie Mellon
 University), and the Gaussian 82(TM) system (copyright 1983,
 Carnegie Mellon University). Gaussian is a federally registered
 trademark of Gaussian, Inc.
  
 This software contains proprietary and confidential information,
 including trade secrets, belonging to Gaussian, Inc.
  
 This software is provided under written license and may be
 used, copied, transmitted, or stored only in accord with that
 written license.
  
 The following legend is applicable only to US Government
 contracts under FAR:
  
                    RESTRICTED RIGHTS LEGEND
  
 Use, reproduction and disclosure by the US Government is
 subject to restrictions as set forth in subparagraphs (a)
 and (c) of the Commercial Computer Software - Restricted
 Rights clause in FAR 52.227-19.
  
 Gaussian, Inc.
 340 Quinnipiac St., Bldg. 40, Wallingford CT 06492
  
  
 ---------------------------------------------------------------
 Warning -- This program may not be used in any manner that
 competes with the business of Gaussian, Inc. or will provide
 assistance to any competitor of Gaussian, Inc.  The licensee
 of this program is prohibited from giving any competitor of
 Gaussian, Inc. access to this program.  By using this program,
 the user acknowledges that Gaussian, Inc. is engaged in the
 business of creating and licensing software in the field of
 computational chemistry and represents and warrants to the
 licensee that it is not a competitor of Gaussian, Inc. and that
 it will not use this program in any manner prohibited above.
 ---------------------------------------------------------------
  

 Cite this work as:
 Gaussian 09, Revision A.02,
 M. J. Frisch, G. W. Trucks, H. B. Schlegel, G. E. Scuseria, 
 M. A. Robb, J. R. Cheeseman, G. Scalmani, V. Barone, B. Mennucci, 
 G. A. Petersson, H. Nakatsuji, M. Caricato, X. Li, H. P. Hratchian, 
 A. F. Izmaylov, J. Bloino, G. Zheng, J. L. Sonnenberg, M. Hada, 
 M. Ehara, K. Toyota, R. Fukuda, J. Hasegawa, M. Ishida, T. Nakajima, 
 Y. Honda, O. Kitao, H. Nakai, T. Vreven, J. A. Montgomery, Jr., 
 J. E. Peralta, F. Ogliaro, M. Bearpark, J. J. Heyd, E. Brothers, 
 K. N. Kudin, V. N. Staroverov, R. Kobayashi, J. Normand, 
 K. Raghavachari, A. Rendell, J. C. Burant, S. S. Iyengar, J. Tomasi, 
 M. Cossi, N. Rega, J. M. Millam, M. Klene, J. E. Knox, J. B. Cross, 
 V. Bakken, C. Adamo, J. Jaramillo, R. Gomperts, R. E. Stratmann, 
 O. Yazyev, A. J. Austin, R. Cammi, C. Pomelli, J. W. Ochterski, 
 R. L. Martin, K. Morokuma, V. G. Zakrzewski, G. A. Voth, 
 P. Salvador, J. J. Dannenberg, S. Dapprich, A. D. Daniels, 
 O. Farkas, J. B. Foresman, J. V. Ortiz, J. Cioslowski, 
 and D. J. Fox, Gaussian, Inc., Wallingford CT, 2009.
 
 ******************************************
 Gaussian 09:  EM64L-G09RevA.02 11-Jun-2009
                28-Mar-2018 
 ******************************************
 %mem=5GB
 %nproc=3
 Will use up to    3 processors via shared memory.
 -------------------------------------------------------
 #HF/6-31G* nosymm SCF=Tight opt=(Z-MATRIX,MaxCycle=200)
 -------------------------------------------------------
 1/6=200,10=7,18=40,38=1/1,3;
 2/12=2,15=1,17=6,18=5,29=3,40=1/2;
 3/5=1,6=6,7=1,11=9,16=1,25=1,30=1,71=1/1,2,3;
 4//1;
 5/5=2,32=2,38=5/2;
 6/7=2,8=2,9=2,10=2,28=1/1;
 7/29=1,30=1/1,2,3,16;
 1/6=200,10=7,18=40/3(2);
 2/15=1,29=3/2;
 99//99;
 2/15=1,29=3/2;
 3/5=1,6=6,7=1,11=9,16=1,25=1,30=1,71=1/1,2,3;
 4/5=5,16=3/1;
 5/5=2,32=2,38=5/2;
 7/30=1/1,2,3,16;
 1/6=200,18=40/3(-5);
 2/15=1,29=3/2;
 6/7=2,8=2,9=2,10=2,19=2,28=1/1;
 99/9=1/99;
 ---------------
 Mol-Water Dimer
 ---------------
 Symbolic Z-matrix:
 Charge =  0 Multiplicity = 1
 N                    -3.01331  -2.51155  -0.41219 
 N                    -5.22756  -3.08025   0.01776 
 N                    -0.97817   3.56035   0.13129 
 N                     1.03999   2.52808   0.16831 
 N99                   4.96579  -1.51547  -0.0087 
 N                    -0.84043   1.19804   0.0407 
 C                    -0.7616   -1.67732  -0.87375 
 C                    -2.17855  -1.41595  -0.45381 
 C                    -4.20008  -2.18855  -0.05691 
 C                    -2.74326  -0.23257  -0.11111 
 C                    -2.16161   1.10984  -0.02969 
 C                    -2.95851   2.25384  -0.0187 
 C                    -2.28736   3.45662   0.06768 
 C                    -0.31018   2.40783   0.10702 
 C                     2.00032   1.48794   0.11857 
 C                     2.04918   0.49089   1.08054 
 C                     3.01909  -0.49053   1.0434 
 C                     4.00146  -0.50964   0.04361 
 C                     5.18471  -2.31613   1.1765 
 C                     6.11511  -1.31633  -0.86371 
 C                     3.95701   0.51458  -0.90628 
 C                     2.96534   1.47999  -0.87153 
 S                    -4.44477  -0.50304   0.26866 
 H                    -0.3237   -0.82986  -1.37539 
 H                    -0.74791  -2.54516  -1.52064 
 H                    -0.14764  -1.89114  -0.00521 
 H                    -5.97008  -2.88098   0.65016 
 H                    -4.93488  -4.03367   0.00875 
 H                     1.36351   3.46879   0.16814 
 H                    -4.02699   2.21893  -0.09266 
 H                    -2.83523   4.38364   0.08106 
 H                     1.31685   0.47914   1.86562 
 H                     3.00679  -1.23797   1.81091 
 H                     5.96939  -3.03215   0.97745 
 H                     4.29634  -2.88014   1.43166 
 H                     5.47495  -1.72296   2.04398 
 H                     6.75956  -2.18123  -0.79487 
 H                     6.69756  -0.43358  -0.5979 
 H                     5.81297  -1.22539  -1.89952 
 H                     4.68426   0.56815  -1.69104 
 H                     2.9501    2.24274  -1.6304 
 X1                    5.76393  -0.55649   0.82396 
 X2                    5.53415  -0.90571  -1.25576 
 H1W                  N99  roh      X2    90.      X1    180.     0
 X3                   H1W   1.5      N99   90.      X2    0.       0
 O1W                  H1W   0.9474   X3    90.      X2    180.     0
 H2W                  O1W   0.9474   H1W   105.5395  X3   phi      0
       Variables:
  roh                   2.1307                   
  phi                 267.80064                  
 

 GradGradGradGradGradGradGradGradGradGradGradGradGradGradGradGradGradGrad
 Berny optimization.
 Initialization pass.
                       ----------------------------
                       !    Initial Parameters    !
                       ! (Angstroms and Degrees)  !
 ----------------------                            ----------------------
 !      Name          Value   Derivative information (Atomic Units)     !
 ------------------------------------------------------------------------
 !       roh         2.1307   estimate D2E/DX2                          !
 !       phi       267.8006   estimate D2E/DX2                          !
 ------------------------------------------------------------------------
 Trust Radius=3.00D-01 FncErr=1.00D-07 GrdErr=1.00D-07
 Number of steps in this run= 100 maximum allowed number of steps= 100.
 GradGradGradGradGradGradGradGradGradGradGradGradGradGradGradGradGradGrad

 ---------------------------------------------------------------------------------------------------
                            Z-MATRIX (ANGSTROMS AND DEGREES)
   CD    Cent   Atom    N1       Length/X        N2       Alpha/Y        N3        Beta/Z          J
 ---------------------------------------------------------------------------------------------------
      1      1  N        0  -3.013310         -2.511550         -0.412190
      2      2  N        0  -5.227560         -3.080250          0.017760
      3      3  N        0  -0.978170          3.560350          0.131290
      4      4  N        0   1.039990          2.528080          0.168310
      5      5  N        0   4.965790         -1.515470         -0.008700
      6      6  N        0  -0.840430          1.198040          0.040700
      7      7  C        0  -0.761600         -1.677320         -0.873750
      8      8  C        0  -2.178550         -1.415950         -0.453810
      9      9  C        0  -4.200080         -2.188550         -0.056910
     10     10  C        0  -2.743260         -0.232570         -0.111110
     11     11  C        0  -2.161610          1.109840         -0.029690
     12     12  C        0  -2.958510          2.253840         -0.018700
     13     13  C        0  -2.287360          3.456620          0.067680
     14     14  C        0  -0.310180          2.407830          0.107020
     15     15  C        0   2.000320          1.487940          0.118570
     16     16  C        0   2.049180          0.490890          1.080540
     17     17  C        0   3.019090         -0.490530          1.043400
     18     18  C        0   4.001460         -0.509640          0.043610
     19     19  C        0   5.184710         -2.316130          1.176500
     20     20  C        0   6.115110         -1.316330         -0.863710
     21     21  C        0   3.957010          0.514580         -0.906280
     22     22  C        0   2.965340          1.479990         -0.871530
     23     23  S        0  -4.444770         -0.503040          0.268660
     24     24  H        0  -0.323700         -0.829860         -1.375390
     25     25  H        0  -0.747910         -2.545160         -1.520640
     26     26  H        0  -0.147640         -1.891140         -0.005210
     27     27  H        0  -5.970080         -2.880980          0.650160
     28     28  H        0  -4.934880         -4.033670          0.008750
     29     29  H        0   1.363510          3.468790          0.168140
     30     30  H        0  -4.026990          2.218930         -0.092660
     31     31  H        0  -2.835230          4.383640          0.081060
     32     32  H        0   1.316850          0.479140          1.865620
     33     33  H        0   3.006790         -1.237970          1.810910
     34     34  H        0   5.969390         -3.032150          0.977450
     35     35  H        0   4.296340         -2.880140          1.431660
     36     36  H        0   5.474950         -1.722960          2.043980
     37     37  H        0   6.759560         -2.181230         -0.794870
     38     38  H        0   6.697560         -0.433580         -0.597900
     39     39  H        0   5.812970         -1.225390         -1.899520
     40     40  H        0   4.684260          0.568150         -1.691040
     41     41  H        0   2.950100          2.242740         -1.630400
     42         X        0   5.763930         -0.556490          0.823960
     43         X        0   5.534150         -0.905710         -1.255760
     44     42  H        5   2.130700(    43)     43   90.000(    88)     42  180.000(   132)      0
     45         X       44   1.500000(    44)      5   90.000(    89)     43    0.000(   133)      0
     46     43  O       44   0.947400(    45)     45   90.000(    90)     43  180.000(   134)      0
     47     44  H       46   0.947400(    46)     44  105.540(    91)     45  267.801(   135)      0
 ---------------------------------------------------------------------------------------------------
                         Z-Matrix orientation:                         
 ---------------------------------------------------------------------
 Center     Atomic      Atomic             Coordinates (Angstroms)
 Number     Number       Type             X           Y           Z
 ---------------------------------------------------------------------
      1          7           0       -3.013310   -2.511550   -0.412190
      2          7           0       -5.227560   -3.080250    0.017760
      3          7           0       -0.978170    3.560350    0.131290
      4          7           0        1.039990    2.528080    0.168310
      5          7           0        4.965790   -1.515470   -0.008700
      6          7           0       -0.840430    1.198040    0.040700
      7          6           0       -0.761600   -1.677320   -0.873750
      8          6           0       -2.178550   -1.415950   -0.453810
      9          6           0       -4.200080   -2.188550   -0.056910
     10          6           0       -2.743260   -0.232570   -0.111110
     11          6           0       -2.161610    1.109840   -0.029690
     12          6           0       -2.958510    2.253840   -0.018700
     13          6           0       -2.287360    3.456620    0.067680
     14          6           0       -0.310180    2.407830    0.107020
     15          6           0        2.000320    1.487940    0.118570
     16          6           0        2.049180    0.490890    1.080540
     17          6           0        3.019090   -0.490530    1.043400
     18          6           0        4.001460   -0.509640    0.043610
     19          6           0        5.184710   -2.316130    1.176500
     20          6           0        6.115110   -1.316330   -0.863710
     21          6           0        3.957010    0.514580   -0.906280
     22          6           0        2.965340    1.479990   -0.871530
     23         16           0       -4.444770   -0.503040    0.268660
     24          1           0       -0.323700   -0.829860   -1.375390
     25          1           0       -0.747910   -2.545160   -1.520640
     26          1           0       -0.147640   -1.891140   -0.005210
     27          1           0       -5.970080   -2.880980    0.650160
     28          1           0       -4.934880   -4.033670    0.008750
     29          1           0        1.363510    3.468790    0.168140
     30          1           0       -4.026990    2.218930   -0.092660
     31          1           0       -2.835230    4.383640    0.081060
     32          1           0        1.316850    0.479140    1.865620
     33          1           0        3.006790   -1.237970    1.810910
     34          1           0        5.969390   -3.032150    0.977450
     35          1           0        4.296340   -2.880140    1.431660
     36          1           0        5.474950   -1.722960    2.043980
     37          1           0        6.759560   -2.181230   -0.794870
     38          1           0        6.697560   -0.433580   -0.597900
     39          1           0        5.812970   -1.225390   -1.899520
     40          1           0        4.684260    0.568150   -1.691040
     41          1           0        2.950100    2.242740   -1.630400
     42         -1           0        5.763930   -0.556490    0.823960
     43         -1           0        5.534150   -0.905710   -1.255760
     44          1           0        3.832057   -2.877671   -1.191469
     45         -1           0        4.400418   -2.267911   -2.438529
     46          8           0        3.327952   -3.483363   -1.717378
     47          1           0        2.489016   -3.064541   -1.852811
 ---------------------------------------------------------------------
                    Distance matrix (angstroms):
                    1          2          3          4          5
     1  N    0.000000
     2  N    2.326194   0.000000
     3  N    6.426907   7.884654   0.000000
     4  N    6.493388   8.411790   2.267140   0.000000
     5  N    8.051150  10.312789   7.817558   5.638576   0.000000
     6  N    4.322913   6.127903   2.368056   2.306788   6.409194
     7  C    2.445235   4.765270   5.337621   4.692228   5.794610
     8  C    1.378004   3.505529   5.152360   5.128490   7.158884
     9  C    1.280225   1.362505   6.592873   7.053769   9.190676
    10  C    2.314590   3.781221   4.190530   4.691721   7.815739
    11  C    3.739808   5.192221   2.726068   3.507257   7.595559
    12  C    4.781922   5.796761   2.377228   4.012254   8.775097
    13  C    6.031279   7.167841   1.314833   3.455947   8.794072
    14  C    5.637091   7.369370   1.332330   1.356899   6.575829
    15  C    6.435380   8.551068   3.628560   1.416545   4.222639
    16  C    6.072207   8.175175   4.414466   2.449647   3.703854
    17  C    6.526340   8.704357   5.763650   3.714112   2.438659
    18  C    7.309063   9.580371   6.431891   4.244243   1.394404
    19  C    8.352823  10.504376   8.579427   6.454574   1.446956
    20  C    9.217401  11.512800   8.665256   6.449914   1.446249
    21  C    7.614916   9.906209   5.891457   3.703773   2.438112
    22  C    7.203308   9.418611   4.569991   2.426259   3.703924
    23  S    2.558661   2.705129   5.342970   6.267404   9.468927
    24  H    3.315092   5.572519   4.687468   3.939343   5.506052
    25  H    2.522266   4.766577   6.329229   5.637987   5.999383
    26  H    2.960170   5.217288   5.516082   4.579310   5.127212
    27  H    3.163472   0.995477   8.165729   8.867423  11.040469
    28  H    2.487262   0.997373   8.563861   8.875871  10.215914
    29  H    7.433559   9.292725   2.343759   0.994787   6.152279
    30  H    4.848411   5.434599   3.338393   5.083106   9.737704
    31  H    6.915103   7.838170   2.031994   4.297446   9.780770
    32  H    5.734364   7.675490   4.215314   2.675008   4.561393
    33  H    6.542613   8.626349   6.459482   4.555170   2.688060
    34  H    9.104451  11.238105   9.614865   7.474614   2.068822
    35  H    7.547624   9.630360   8.425635   6.438067   2.094069
    36  H    8.871595  10.976863   8.556548   6.423266   2.125039
    37  H    9.785936  12.048222   9.679668   7.471198   2.068553
    38  H    9.932444  12.230797   8.683319   6.431688   2.125246
    39  H    9.042653  11.358247   8.552607   6.414499   2.092143
    40  H    8.388837  10.699299   6.658623   4.536432   2.692768
    41  H    7.723313   9.895695   4.502328   2.639185   4.562572
    42  X    9.076909  11.306289   7.929948   5.679794   1.499998
    43  X    8.737815  11.052822   8.017475   5.832355   1.500000
    44  H    6.899303   9.142207   8.144697   6.234323   2.130700
    45  X    7.689523   9.969514   8.336774   6.410118   2.605740
    46  O    6.546720   8.738992   8.460151   6.702838   3.078100
    47  H    5.714611   7.940078   7.736099   6.120623   3.454675
                    6          7          8          9         10
     6  N    0.000000
     7  C    3.018299   0.000000
     8  C    2.977927   1.500804   0.000000
     9  C    4.771349   3.570956   2.200233   0.000000
    10  C    2.385467   2.568248   1.355260   2.439492   0.000000
    11  C    1.325990   3.231211   2.561207   3.877561   1.465268
    12  C    2.367384   4.583835   3.776906   4.612785   2.497420
    13  C    2.682446   5.437975   4.901605   5.961708   3.721550
    14  C    1.322556   4.225416   4.292625   6.023695   3.597106
    15  C    2.856565   4.316454   5.120854   7.210571   5.051184
    16  C    3.151377   4.052267   4.885076   6.893942   4.991083
    17  C    4.330424   4.401994   5.487577   7.497358   5.882526
    18  C    5.134207   4.989165   6.265888   8.372222   6.752181
    19  C    7.066947   6.322199   7.595119   9.466354   8.297703
    20  C    7.451144   6.886186   8.304381  10.383392   8.956096
    21  C    4.937542   5.202957   6.448005   8.635187   6.788531
    22  C    3.923716   4.884536   5.917817   8.091047   6.008262
    23  S    3.992105   4.031101   2.547768   1.734016   1.764232
    24  H    2.526796   1.077770   2.152505   4.314018   2.794536
    25  H    4.056832   1.082497   2.111865   3.766584   3.363966
    26  H    3.166244   1.084909   2.133458   4.063668   3.082095
    27  H    6.582033   5.558720   4.211978   2.027882   4.243345
    28  H    6.643518   4.873136   3.829331   1.987136   4.389297
    29  H    3.167001   5.664281   6.065781   7.937864   5.535667
    30  H    3.348756   5.143310   4.093838   4.411022   2.767337
    31  H    3.758843   6.476638   5.861106   6.713831   4.621124
    32  H    2.915649   4.058870   4.603145   6.422555   4.571486
    33  H    4.885580   4.647708   5.661129   7.505420   6.145573
    34  H    8.071286   7.111170   8.429089  10.256690   9.215904
    35  H    6.704680   5.687218   6.900946   8.653513   7.677613
    36  H    7.240815   6.885477   8.056629   9.911444   8.625813
    37  H    8.359276   7.538435   8.977293  10.984459   9.724628
    38  H    7.738946   7.567169   8.931469  11.051296   9.455498
    39  H    7.342016   6.669439   8.123471  10.226635   8.797339
    40  H    5.823906   5.947057   7.250210   9.444643   7.635796
    41  H    4.272247   5.451248   6.408855   8.557878   6.391381
    42  X    6.878186   6.835278   8.090387  10.135139   8.564553
    43  X    6.836801   6.354351   7.771049   9.891317   8.383249
    44  H    6.321534   4.758516   6.229620   8.141090   7.169277
    45  X    6.754693   5.426210   6.924432   8.924515   7.784062
    46  O    6.510129   4.549498   6.016009   7.816966   7.071589
    47  H    5.730637   3.667349   5.144048   6.981162   6.199218
                   11         12         13         14         15
    11  C    0.000000
    12  C    1.394240   0.000000
    13  C    2.352163   1.380067   0.000000
    14  C    2.265229   2.655781   2.238470   0.000000
    15  C    4.181698   5.019506   4.718314   2.486914   0.000000
    16  C    4.398461   5.421557   5.350422   3.192018   1.386320
    17  C    5.527419   6.662682   6.685090   4.512354   2.409885
    18  C    6.372717   7.488784   7.435123   5.206332   2.828517
    19  C    8.195156   9.414094   9.507153   7.324848   5.072524
    20  C    8.665217   9.787274   9.708246   7.489729   5.075461
    21  C    6.209690   7.185906   6.971109   4.777037   2.413790
    22  C    5.208774   6.034746   5.690346   3.542242   1.382615
    23  S    2.811266   3.145144   4.513726   5.059064   6.747275
    24  H    2.991865   4.276919   4.930753   3.560949   3.606270
    25  H    4.192911   5.492993   6.396408   5.231921   5.148366
    26  H    3.614216   5.008196   5.760404   4.303505   4.005900
    27  H    5.558173   5.990267   7.353019   7.765371   9.104797
    28  H    5.843646   6.590870   7.944638   7.930349   8.865508
    29  H    4.246205   4.493425   3.652272   1.982577   2.081286
    30  H    2.171103   1.071605   2.141004   3.726960   6.075149
    31  H    3.344218   2.135696   1.076897   3.206303   5.636402
    32  H    4.011193   4.997892   5.008823   3.075670   2.130022
    33  H    5.967611   7.150176   7.287390   5.215112   3.362675
    34  H    9.180609  10.423119  10.540671   8.353684   6.076381
    35  H    7.730498   9.005229   9.239052   7.137039   5.106470
    36  H    8.404874   9.549494   9.538725   7.367698   5.107850
    37  H    9.539597  10.710423  10.694677   8.476680   6.078449
    38  H    9.010544  10.039790   9.813534   7.594665   5.125391
    39  H    8.517247   9.621922   9.560672   7.397260   5.096189
    40  H    7.065370   8.003137   7.748538   5.617995   3.365150
    41  H    5.474972   6.124490   5.638082   3.698014   2.128544
    42  X    8.143682   9.202662   9.027751   6.796765   4.340741
    43  X    8.049249   9.145400   9.053035   6.855137   4.484005
    44  H    7.292052   8.591833   8.896964   6.839643   4.912232
    45  X    7.763499   8.969705   9.153016   7.108593   5.138642
    46  O    7.353985   8.678745   9.103929   7.160348   5.463256
    47  H    6.509804   7.831008   8.308285   6.451611   4.985003
                   16         17         18         19         20
    16  C    0.000000
    17  C    1.380322   0.000000
    18  C    2.426454   1.401783   0.000000
    19  C    4.209527   2.835567   2.438632   0.000000
    20  C    4.855712   3.728854   2.437518   2.455138   0.000000
    21  C    2.754602   2.385622   1.397603   3.722652   2.830449
    22  C    2.372392   2.748235   2.422737   4.850831   4.211949
    23  S    6.619549   7.503971   8.449230   9.840648  10.651515
    24  H    3.661493   4.140040   4.563235   6.250098   6.477403
    25  H    4.879288   4.998609   5.398772   6.520966   7.003044
    26  H    3.417446   3.617937   4.373323   5.478231   6.347398
    27  H    8.709952   9.309891  10.267559  11.181477  12.279729
    28  H    8.390320   8.768693   9.606153  10.330522  11.412598
    29  H    3.189123   4.379868   4.775164   7.005973   6.822008
    30  H    6.425135   7.634072   8.480547  10.345673  10.768230
    31  H    6.325340   7.678326   8.407492  10.507442  10.653208
    32  H    1.073683   2.124600   3.391834   4.821697   5.804847
    33  H    2.106992   1.071396   2.154804   2.511621   4.101388
    34  H    5.271668   3.894670   3.332846   1.080754   2.520941
    35  H    4.066553   2.737216   2.762772   1.082781   3.319962
    36  H    4.191092   2.924259   2.764923   1.090235   3.004965
    37  H    5.731062   4.497646   3.332323   2.526787   1.080790
    38  H    5.027847   4.028430   2.772413   2.996866   1.090482
    39  H    5.098283   4.123901   2.751294   3.323601   1.082802
    40  H    3.825084   3.372055   2.153336   4.097842   2.506606
    41  H    3.351094   3.824229   3.388696   5.801333   4.824115
    42  X    3.868101   2.754388   1.928067   1.885766   1.883856
    43  X    4.421968   3.432789   2.048017   2.833246   0.812297
    44  H    4.437102   3.369569   2.676133   2.784290   2.785236
    45  X    5.052044   4.146200   3.067849   3.699443   2.515101
    46  O    5.025763   4.083423   3.521040   3.631049   3.632222
    47  H    4.630237   3.910825   3.522985   4.123544   4.145253
                   21         22         23         24         25
    21  C    0.000000
    22  C    1.384425   0.000000
    23  S    8.544351   7.755138   0.000000
    24  H    4.511326   4.050564   4.448925   0.000000
    25  H    5.645859   5.514653   4.586788   1.772937   0.000000
    26  H    4.842269   4.669654   4.524064   1.742041   1.756301
    27  H   10.606576  10.058595   2.850739   6.339681   5.665351
    28  H   10.029435   9.674131   3.573949   5.783012   4.699512
    29  H    4.075289   2.757190   7.037162   4.869040   6.593760
    30  H    8.204331   7.074274   2.777447   4.965367   5.957184
    31  H    7.879022   6.556312   5.148345   5.967379   7.411519
    32  H    3.828202   3.348315   6.058979   3.861221   4.987623
    33  H    3.370085   3.818967   7.644894   4.627227   5.187075
    34  H    4.491927   5.727342  10.740275   7.070284   7.183295
    35  H    4.135847   5.107541   9.132917   5.781691   5.854293
    36  H    4.001845   5.005720  10.150902   6.790733   7.218484
    37  H    3.890256   5.273188  11.379122   7.234347   7.551244
    38  H    2.916285   4.203105  11.176192   7.075282   7.793923
    39  H    2.731045   4.060153  10.509235   6.171700   6.703021
    40  H    1.071266   2.111335   9.398248   5.209005   6.263402
    41  H    2.127147   1.076059   8.113559   4.497073   6.050728
    42  X    2.721375   3.854094  10.223931   6.478511   7.201112
    43  X    2.150984   3.526752  10.102715   5.859562   6.497864
    44  H    3.406510   4.454522   8.733654   4.636559   4.603805
    45  X    3.207281   4.308328   9.417058   5.051291   5.236856
    46  O    4.127608   5.047952   8.558147   4.526875   4.187073
    47  H    3.982592   4.673603   7.690209   3.623962   3.295115
                   26         27         28         29         30
    26  H    0.000000
    27  H    5.942230   0.000000
    28  H    5.244835   1.676824   0.000000
    29  H    5.571577   9.712542   9.797042   0.000000
    30  H    5.652405   5.507855   6.318984   5.539644   0.000000
    31  H    6.826672   7.932582   8.675533   4.298133   2.477184
    32  H    3.356034   8.115855   7.930797   3.438259   5.951332
    33  H    3.698020   9.199512   8.610101   5.249062   8.065221
    34  H    6.299649  11.944912  10.992931   8.008204  11.342248
    35  H    4.774063  10.296122   9.411202   7.106820   9.879367
    36  H    5.986734  11.587599  10.855694   6.883094  10.506693
    37  H    6.958242  12.830491  11.867488   7.871942  11.670654
    38  H    7.023712  12.962119  12.191896   6.653375  11.059252
    39  H    6.289714  12.168899  11.271389   6.790305  10.580780
    40  H    5.677798  11.440834  10.797865   4.785148   9.009205
    41  H    5.415367  10.536749  10.210438   2.693550   7.144578
    42  X    6.116819  11.963296  11.279179   5.999723  10.217889
    43  X    5.900651  11.827152  10.999259   6.209507  10.125788
    44  H    4.268307   9.973641   8.923903   6.944050   9.431190
    45  X    5.171830  10.838038   9.810956   6.994803   9.831380
    46  O    4.188846   9.613610   8.459122   7.466368   9.447276
    47  H    3.426727   8.823541   7.714846   6.930759   8.571554
                   31         32         33         34         35
    31  H    0.000000
    32  H    5.972398   0.000000
    33  H    8.289999   2.409846   0.000000
    34  H   11.546376   5.896112   3.562406   0.000000
    35  H   10.268686   4.511147   2.122143   1.740261   0.000000
    36  H   10.497748   4.708593   2.526134   1.759527   1.761568
    37  H   11.658678   6.616560   4.665095   2.118856   3.393135
    38  H   10.702368   5.987823   4.480088   3.124824   3.983796
    39  H   10.496441   6.107110   4.652107   3.400854   4.016855
    40  H    8.616324   4.898694   4.282479   4.662034   4.668237
    41  H    6.401765   4.242634   4.895015   6.613733   6.118208
    42  X    9.944965   4.683386   3.006710   2.488908   2.814688
    43  X    9.990537   5.426458   3.987783   3.114227   3.557074
    44  H    9.939753   5.190399   3.519086   3.048977   2.663901
    45  X   10.146233   5.964929   4.589195   3.835968   3.919697
    46  O   10.154257   5.708226   4.194491   3.800380   3.349343
    47  H    9.357503   5.268622   4.126416   4.486026   3.753422
                   36         37         38         39         40
    36  H    0.000000
    37  H    3.149493   0.000000
    38  H    3.183835   1.759807   0.000000
    39  H    3.989113   1.740665   1.761726   0.000000
    40  H    4.452499   3.559365   2.500359   2.129375   0.000000
    41  H    5.966801   5.897593   4.719343   4.505150   2.411481
    42  X    1.712487   2.500334   1.705420   2.804849   2.959008
    43  X    3.399954   1.827840   1.417466   0.770949   1.756145
    44  H    3.807963   3.035225   3.812743   2.674955   3.584620
    45  X    4.641603   2.876575   3.468364   1.836487   2.946616
    46  O    4.675087   3.784509   4.680670   3.362579   4.272590
    47  H    5.089266   4.487430   5.119434   3.799122   4.247554
                   41         42         43         44         45
    41  H    0.000000
    42  X    4.666606   0.000000
    43  X    4.090282   2.121318   0.000000
    44  H    5.214318   3.630698   2.605740   0.000000
    45  X    4.806502   3.928354   2.130700   1.500000   0.000000
    46  O    5.739216   4.578098   3.424135   0.947400   1.774138
    47  H    5.331913   4.917366   3.780194   1.508660   2.152009
                   46         47
    46  O    0.000000
    47  H    0.947400   0.000000
 Symmetry turned off by external request.
 Stoichiometry    C16H20N6OS
 Framework group  C1[X(C16H20N6OS)]
 Deg. of freedom   126
 Full point group                 C1      NOp   1
 Rotational constants (GHZ):      0.3220588      0.1179526      0.0912121
 Standard basis: 6-31G(d) (6D, 7F)
 Integral buffers will be    131072 words long.
 Raffenetti 1 integral format.
 Two-electron integral symmetry is turned off.
   404 basis functions,   776 primitive gaussians,   404 cartesian basis functions
    91 alpha electrons       91 beta electrons
       nuclear repulsion energy      2133.7126371038 Hartrees.
 NAtoms=   44 NActive=   44 NUniq=   44 SFac= 7.50D-01 NAtFMM=   80 NAOKFM=F Big=F
 One-electron integrals computed using PRISM.
 NBasis=   404 RedAO= T  NBF=   404
 NBsUse=   404 1.00D-06 NBFU=   404
 Harris functional with IExCor=  205 diagonalized for initial guess.
 ExpMin= 1.17D-01 ExpMax= 2.19D+04 ExpMxC= 3.30D+03 IAcc=1 IRadAn=         1 AccDes= 0.00D+00
 HarFok:  IExCor=  205 AccDes= 0.00D+00 IRadAn=         1 IDoV= 1
 ScaDFX=  1.000000  1.000000  1.000000  1.000000
 FoFCou: FMM=F IPFlag=           0 FMFlag=      100000 FMFlg1=           0
         NFxFlg=           0 DoJE=T BraDBF=F KetDBF=T FulRan=T
         Omega=  0.000000  0.000000  1.000000  0.000000  0.000000 ICntrl=     500 IOpCl=  0
         NMat0=    1 NMatS0=    1 NMatT0=    0 NMatD0=    1 NMtDS0=    0 NMtDT0=    0
         I1Cent=           4 NGrid=           0.
 Symmetry not used in FoFCou.
 Requested convergence on RMS density matrix=1.00D-08 within 128 cycles.
 Requested convergence on MAX density matrix=1.00D-06.
 Requested convergence on             energy=1.00D-06.
 No special actions if energy rises.
 Integral accuracy reduced to 1.0D-05 until final iterations.
 Initial convergence to 1.0D-05 achieved.  Increase integral accuracy.
 SCF Done:  E(RHF) =  -1416.59540844     A.U. after   16 cycles
             Convg  =    0.5828D-08             -V/T =  2.0010

 **********************************************************************

            Population analysis using the SCF density.

 **********************************************************************

 Alpha  occ. eigenvalues --  -91.97568 -20.52746 -15.59554 -15.58344 -15.57926
 Alpha  occ. eigenvalues --  -15.55056 -15.54866 -15.54785 -11.35379 -11.34489
 Alpha  occ. eigenvalues --  -11.30663 -11.28619 -11.28312 -11.28073 -11.26370
 Alpha  occ. eigenvalues --  -11.25910 -11.25906 -11.25446 -11.23562 -11.23350
 Alpha  occ. eigenvalues --  -11.22773 -11.22747 -11.22003 -11.21074  -8.98706
 Alpha  occ. eigenvalues --   -6.66976  -6.66863  -6.66680  -1.33634  -1.31891
 Alpha  occ. eigenvalues --   -1.31465  -1.26860  -1.23595  -1.21789  -1.19557
 Alpha  occ. eigenvalues --   -1.13806  -1.08417  -1.04168  -1.02974  -1.02364
 Alpha  occ. eigenvalues --   -1.00405  -0.97819  -0.93405  -0.90806  -0.88378
 Alpha  occ. eigenvalues --   -0.86364  -0.83579  -0.80462  -0.79115  -0.77164
 Alpha  occ. eigenvalues --   -0.73484  -0.73149  -0.70434  -0.69583  -0.69437
 Alpha  occ. eigenvalues --   -0.67406  -0.66087  -0.65663  -0.64443  -0.63749
 Alpha  occ. eigenvalues --   -0.62744  -0.61004  -0.60119  -0.59572  -0.59235
 Alpha  occ. eigenvalues --   -0.58418  -0.58014  -0.56649  -0.56507  -0.56009
 Alpha  occ. eigenvalues --   -0.55340  -0.54595  -0.53825  -0.53735  -0.53413
 Alpha  occ. eigenvalues --   -0.51375  -0.49477  -0.48813  -0.47714  -0.47093
 Alpha  occ. eigenvalues --   -0.46912  -0.45106  -0.42621  -0.42261  -0.41201
 Alpha  occ. eigenvalues --   -0.39401  -0.38303  -0.34009  -0.33329  -0.29632
 Alpha  occ. eigenvalues --   -0.27923
 Alpha virt. eigenvalues --    0.09166   0.13815   0.14137   0.15551   0.16325
 Alpha virt. eigenvalues --    0.19199   0.21305   0.22408   0.23806   0.24504
 Alpha virt. eigenvalues --    0.25534   0.26123   0.26490   0.26933   0.27330
 Alpha virt. eigenvalues --    0.27795   0.29420   0.30031   0.31074   0.31545
 Alpha virt. eigenvalues --    0.32224   0.32662   0.32897   0.34337   0.34649
 Alpha virt. eigenvalues --    0.34901   0.35591   0.35889   0.37608   0.38632
 Alpha virt. eigenvalues --    0.39717   0.40142   0.40875   0.42390   0.42518
 Alpha virt. eigenvalues --    0.43885   0.45612   0.46898   0.47551   0.48735
 Alpha virt. eigenvalues --    0.51004   0.51644   0.52537   0.52603   0.54000
 Alpha virt. eigenvalues --    0.55473   0.57090   0.57341   0.58968   0.59741
 Alpha virt. eigenvalues --    0.61144   0.63218   0.67259   0.67837   0.68231
 Alpha virt. eigenvalues --    0.69950   0.70479   0.72519   0.73710   0.73963
 Alpha virt. eigenvalues --    0.74791   0.75519   0.76170   0.76938   0.77798
 Alpha virt. eigenvalues --    0.78688   0.78904   0.79381   0.79860   0.80638
 Alpha virt. eigenvalues --    0.81817   0.82485   0.82925   0.83610   0.84705
 Alpha virt. eigenvalues --    0.84759   0.84913   0.85824   0.87173   0.88745
 Alpha virt. eigenvalues --    0.89110   0.90442   0.91075   0.92596   0.93418
 Alpha virt. eigenvalues --    0.93655   0.94574   0.95018   0.95819   0.96549
 Alpha virt. eigenvalues --    0.97351   0.97854   0.98973   0.99582   1.01306
 Alpha virt. eigenvalues --    1.03113   1.03463   1.04308   1.05395   1.05902
 Alpha virt. eigenvalues --    1.06381   1.07270   1.08676   1.09731   1.10131
 Alpha virt. eigenvalues --    1.10727   1.11338   1.11845   1.12372   1.12622
 Alpha virt. eigenvalues --    1.12896   1.13319   1.14185   1.14692   1.15086
 Alpha virt. eigenvalues --    1.15715   1.16177   1.16572   1.16951   1.18203
 Alpha virt. eigenvalues --    1.18591   1.19123   1.19661   1.20206   1.20712
 Alpha virt. eigenvalues --    1.20952   1.21386   1.21890   1.22512   1.22813
 Alpha virt. eigenvalues --    1.23309   1.24417   1.25011   1.26763   1.27805
 Alpha virt. eigenvalues --    1.28359   1.28843   1.29729   1.30525   1.30866
 Alpha virt. eigenvalues --    1.31588   1.32577   1.32993   1.34538   1.36058
 Alpha virt. eigenvalues --    1.36552   1.38602   1.41213   1.42731   1.43476
 Alpha virt. eigenvalues --    1.44185   1.45440   1.46205   1.47308   1.47718
 Alpha virt. eigenvalues --    1.48696   1.50907   1.52109   1.53123   1.56307
 Alpha virt. eigenvalues --    1.59332   1.61047   1.62182   1.63162   1.64531
 Alpha virt. eigenvalues --    1.65080   1.65986   1.66924   1.69985   1.73389
 Alpha virt. eigenvalues --    1.73806   1.74556   1.74971   1.75767   1.76807
 Alpha virt. eigenvalues --    1.77453   1.77721   1.78880   1.80105   1.80839
 Alpha virt. eigenvalues --    1.82998   1.84233   1.85867   1.88666   1.89438
 Alpha virt. eigenvalues --    1.89884   1.90328   1.93148   2.00068   2.01646
 Alpha virt. eigenvalues --    2.03513   2.04883   2.05698   2.07702   2.09220
 Alpha virt. eigenvalues --    2.09797   2.10141   2.12153   2.13266   2.13758
 Alpha virt. eigenvalues --    2.14560   2.15116   2.18022   2.18717   2.21953
 Alpha virt. eigenvalues --    2.22407   2.22915   2.23457   2.24082   2.26193
 Alpha virt. eigenvalues --    2.27106   2.27475   2.29112   2.30141   2.32351
 Alpha virt. eigenvalues --    2.34486   2.35599   2.37619   2.38262   2.39624
 Alpha virt. eigenvalues --    2.41547   2.41777   2.45455   2.46485   2.47437
 Alpha virt. eigenvalues --    2.47842   2.49378   2.49547   2.50636   2.52568
 Alpha virt. eigenvalues --    2.54037   2.55028   2.57335   2.57635   2.58798
 Alpha virt. eigenvalues --    2.58875   2.60042   2.60833   2.62741   2.64431
 Alpha virt. eigenvalues --    2.64628   2.65495   2.67329   2.68277   2.69767
 Alpha virt. eigenvalues --    2.71347   2.72697   2.73918   2.75236   2.77556
 Alpha virt. eigenvalues --    2.78304   2.80225   2.82090   2.83572   2.85750
 Alpha virt. eigenvalues --    2.86735   2.87522   2.92868   2.93144   2.94454
 Alpha virt. eigenvalues --    2.95474   2.95650   2.96961   2.98746   3.00451
 Alpha virt. eigenvalues --    3.01061   3.01366   3.03689   3.05069   3.06433
 Alpha virt. eigenvalues --    3.08240   3.11355   3.13263   3.14255   3.15630
 Alpha virt. eigenvalues --    3.21017   3.22965   3.25179   3.27475   3.28826
 Alpha virt. eigenvalues --    3.34589   3.40153   3.40671   3.52046   3.58937
 Alpha virt. eigenvalues --    3.59952   3.72311   3.85770   3.87185   4.18295
 Alpha virt. eigenvalues --    4.27156   4.36916   4.47096   4.51711   4.52377
 Alpha virt. eigenvalues --    4.53248   4.55155   4.55670   4.58212   4.59844
 Alpha virt. eigenvalues --    4.65283   4.68097   4.69314   4.71786   4.76963
 Alpha virt. eigenvalues --    4.78569   4.79808   4.82649   4.83738   4.91969
 Alpha virt. eigenvalues --    4.94619   5.08213   5.21489
          Condensed to atoms (all electrons):
              1          2          3          4          5          6
     1  N    6.912051  -0.079687   0.000000   0.000000   0.000000  -0.000002
     2  N   -0.079687   7.068070   0.000000   0.000000   0.000000   0.000000
     3  N    0.000000   0.000000   6.944801  -0.109437   0.000000  -0.102691
     4  N    0.000000   0.000000  -0.109437   7.380963   0.000000  -0.103259
     5  N    0.000000   0.000000   0.000000   0.000000   7.330820   0.000000
     6  N   -0.000002   0.000000  -0.102691  -0.103259   0.000000   7.064201
     7  C   -0.063551  -0.000061  -0.000003   0.000024   0.000000  -0.012467
     8  C    0.434696   0.003461   0.000021  -0.000006   0.000000  -0.002150
     9  C    0.538194   0.306189   0.000000   0.000000   0.000000  -0.000018
    10  C   -0.088938   0.002489  -0.000089  -0.000138   0.000000  -0.085210
    11  C    0.004823  -0.000031  -0.026449   0.002060   0.000000   0.504998
    12  C   -0.000120   0.000000  -0.052101   0.000457   0.000000  -0.072208
    13  C    0.000001   0.000000   0.487425   0.002012   0.000000  -0.013854
    14  C   -0.000002   0.000000   0.516337   0.317938   0.000000   0.498109
    15  C    0.000000   0.000000   0.002676   0.200661   0.000162   0.002053
    16  C    0.000000   0.000000  -0.000006  -0.049597   0.003418  -0.002722
    17  C    0.000000   0.000000  -0.000001   0.004697  -0.060498  -0.000309
    18  C    0.000000   0.000000   0.000000   0.000189   0.261994   0.000021
    19  C    0.000000   0.000000   0.000000   0.000000   0.250283   0.000000
    20  C    0.000000   0.000000   0.000000   0.000000   0.251295   0.000000
    21  C    0.000000   0.000000   0.000000   0.004356  -0.060575  -0.000040
    22  C    0.000000   0.000000  -0.000131  -0.058993   0.003593  -0.000242
    23  S   -0.079944  -0.067757  -0.000002   0.000002   0.000000   0.002273
    24  H    0.002861   0.000001   0.000012  -0.000168   0.000000   0.002871
    25  H   -0.000751  -0.000016   0.000000  -0.000001   0.000000   0.000559
    26  H    0.000499   0.000000   0.000000   0.000002  -0.000004   0.000011
    27  H    0.002436   0.330880   0.000000   0.000000   0.000000   0.000000
    28  H    0.004728   0.322199   0.000000   0.000000   0.000000   0.000000
    29  H    0.000000   0.000000   0.006728   0.325708   0.000000   0.003787
    30  H   -0.000005   0.000000   0.002696   0.000015   0.000000   0.002505
    31  H    0.000000   0.000000  -0.042648  -0.000049   0.000000  -0.000569
    32  H    0.000000   0.000000  -0.000014  -0.003402  -0.000071   0.001851
    33  H    0.000000   0.000000   0.000000  -0.000102  -0.003752  -0.000007
    34  H    0.000000   0.000000   0.000000   0.000000  -0.036378   0.000000
    35  H    0.000000   0.000000   0.000000   0.000000  -0.044906   0.000000
    36  H    0.000000   0.000000   0.000000   0.000000  -0.053651   0.000000
    37  H    0.000000   0.000000   0.000000   0.000000  -0.036466   0.000000
    38  H    0.000000   0.000000   0.000000   0.000000  -0.053979   0.000000
    39  H    0.000000   0.000000   0.000000   0.000000  -0.044910   0.000000
    40  H    0.000000   0.000000   0.000000  -0.000112  -0.003897   0.000000
    41  H    0.000000   0.000000  -0.000025   0.000156  -0.000075  -0.000026
    42  H    0.000000   0.000000   0.000000   0.000000   0.018523   0.000000
    43  O    0.000000   0.000000   0.000000   0.000000  -0.011556   0.000000
    44  H    0.000000   0.000000   0.000000   0.000000   0.000040   0.000000
              7          8          9         10         11         12
     1  N   -0.063551   0.434696   0.538194  -0.088938   0.004823  -0.000120
     2  N   -0.000061   0.003461   0.306189   0.002489  -0.000031   0.000000
     3  N   -0.000003   0.000021   0.000000  -0.000089  -0.026449  -0.052101
     4  N    0.000024  -0.000006   0.000000  -0.000138   0.002060   0.000457
     5  N    0.000000   0.000000   0.000000   0.000000   0.000000   0.000000
     6  N   -0.012467  -0.002150  -0.000018  -0.085210   0.504998  -0.072208
     7  C    5.105130   0.359356   0.006558  -0.057481   0.000101   0.000102
     8  C    0.359356   4.553947  -0.087806   0.592842  -0.009888   0.002936
     9  C    0.006558  -0.087806   4.613022  -0.053123   0.002640  -0.000043
    10  C   -0.057481   0.592842  -0.053123   5.492983   0.369841  -0.072309
    11  C    0.000101  -0.009888   0.002640   0.369841   4.378697   0.510100
    12  C    0.000102   0.002936  -0.000043  -0.072309   0.510100   5.239725
    13  C    0.000002  -0.000091  -0.000003   0.003300  -0.045145   0.515895
    14  C   -0.000343   0.000078   0.000002   0.005109  -0.049829  -0.027928
    15  C   -0.000126  -0.000029   0.000000   0.000022   0.000082   0.000011
    16  C   -0.000425  -0.000008   0.000000   0.000059  -0.000184  -0.000004
    17  C   -0.000152   0.000009   0.000000   0.000002   0.000000   0.000000
    18  C   -0.000004   0.000001   0.000000   0.000000   0.000000   0.000000
    19  C    0.000000   0.000000   0.000000   0.000000   0.000000   0.000000
    20  C    0.000000   0.000000   0.000000   0.000000   0.000000   0.000000
    21  C    0.000001   0.000000   0.000000   0.000000   0.000000   0.000000
    22  C   -0.000040  -0.000001   0.000000   0.000001  -0.000013  -0.000001
    23  S    0.002670  -0.083027   0.337631   0.275638  -0.042608  -0.000035
    24  H    0.390112  -0.030137  -0.000125  -0.003954   0.000222   0.000071
    25  H    0.382377  -0.038065   0.000069   0.004067  -0.000266   0.000004
    26  H    0.386754  -0.033609  -0.000169  -0.003524   0.000956   0.000015
    27  H    0.000002  -0.000165  -0.026153   0.000046  -0.000001   0.000000
    28  H   -0.000020   0.000284  -0.023103  -0.000071   0.000000   0.000000
    29  H    0.000000   0.000000   0.000000   0.000005  -0.000102   0.000020
    30  H   -0.000001   0.000019   0.000014  -0.000941  -0.025255   0.374278
    31  H    0.000000   0.000001   0.000000  -0.000053   0.002443  -0.051587
    32  H    0.000011   0.000000   0.000000  -0.000025  -0.000006   0.000008
    33  H    0.000000   0.000000   0.000000   0.000000   0.000000   0.000000
    34  H    0.000000   0.000000   0.000000   0.000000   0.000000   0.000000
    35  H    0.000000   0.000000   0.000000   0.000000   0.000000   0.000000
    36  H    0.000000   0.000000   0.000000   0.000000   0.000000   0.000000
    37  H    0.000000   0.000000   0.000000   0.000000   0.000000   0.000000
    38  H    0.000000   0.000000   0.000000   0.000000   0.000000   0.000000
    39  H    0.000000   0.000000   0.000000   0.000000   0.000000   0.000000
    40  H    0.000000   0.000000   0.000000   0.000000   0.000000   0.000000
    41  H    0.000000   0.000000   0.000000   0.000000   0.000000   0.000000
    42  H    0.000001   0.000000   0.000000   0.000000   0.000000   0.000000
    43  O   -0.000001   0.000001   0.000000   0.000000   0.000000   0.000000
    44  H    0.000304   0.000001   0.000000   0.000000   0.000000   0.000000
             13         14         15         16         17         18
     1  N    0.000001  -0.000002   0.000000   0.000000   0.000000   0.000000
     2  N    0.000000   0.000000   0.000000   0.000000   0.000000   0.000000
     3  N    0.487425   0.516337   0.002676  -0.000006  -0.000001   0.000000
     4  N    0.002012   0.317938   0.200661  -0.049597   0.004697   0.000189
     5  N    0.000000   0.000000   0.000162   0.003418  -0.060498   0.261994
     6  N   -0.013854   0.498109   0.002053  -0.002722  -0.000309   0.000021
     7  C    0.000002  -0.000343  -0.000126  -0.000425  -0.000152  -0.000004
     8  C   -0.000091   0.000078  -0.000029  -0.000008   0.000009   0.000001
     9  C   -0.000003   0.000002   0.000000   0.000000   0.000000   0.000000
    10  C    0.003300   0.005109   0.000022   0.000059   0.000002   0.000000
    11  C   -0.045145  -0.049829   0.000082  -0.000184   0.000000   0.000000
    12  C    0.515895  -0.027928   0.000011  -0.000004   0.000000   0.000000
    13  C    4.614083  -0.071630  -0.000069   0.000001   0.000000   0.000000
    14  C   -0.071630   3.992977  -0.027955  -0.001718  -0.000061   0.000014
    15  C   -0.000069  -0.027955   4.544512   0.587463  -0.044758  -0.023575
    16  C    0.000001  -0.001718   0.587463   4.861843   0.529751  -0.034792
    17  C    0.000000  -0.000061  -0.044758   0.529751   5.021114   0.566601
    18  C    0.000000   0.000014  -0.023575  -0.034792   0.566601   4.470709
    19  C    0.000000   0.000000   0.000006  -0.000183  -0.008953  -0.047465
    20  C    0.000000   0.000000   0.000006  -0.000057   0.002317  -0.048021
    21  C    0.000000  -0.000042  -0.048639  -0.039760  -0.040151   0.579034
    22  C    0.000004   0.001202   0.592348  -0.047113  -0.041323  -0.035961
    23  S    0.000302  -0.000111   0.000000   0.000000   0.000000   0.000000
    24  H   -0.000005   0.000254   0.000733   0.000073  -0.000129  -0.000029
    25  H    0.000000   0.000017   0.000006   0.000021   0.000005  -0.000001
    26  H    0.000000  -0.000123  -0.000044   0.000905   0.001105   0.000034
    27  H    0.000000   0.000000   0.000000   0.000000   0.000000   0.000000
    28  H    0.000000   0.000000   0.000000   0.000000   0.000000   0.000000
    29  H    0.000365  -0.020985  -0.023421   0.001653  -0.000020   0.000002
    30  H   -0.021898   0.000461   0.000000   0.000000   0.000000   0.000000
    31  H    0.406687   0.003581   0.000003   0.000000   0.000000   0.000000
    32  H   -0.000003   0.002238  -0.023503   0.376335  -0.030300   0.001602
    33  H    0.000000  -0.000003   0.001645  -0.024661   0.380207  -0.031240
    34  H    0.000000   0.000000   0.000000   0.000005   0.000431   0.003707
    35  H    0.000000   0.000000  -0.000005   0.000127  -0.001467  -0.002305
    36  H    0.000000   0.000000  -0.000009  -0.000200   0.001874   0.001089
    37  H    0.000000   0.000000   0.000000   0.000001  -0.000056   0.003656
    38  H    0.000000   0.000000  -0.000008  -0.000013   0.000210   0.000984
    39  H    0.000000   0.000000  -0.000007   0.000003  -0.000048  -0.001959
    40  H    0.000000   0.000000   0.001739   0.000264   0.002745  -0.030373
    41  H    0.000000   0.000201  -0.032543   0.003290   0.000253   0.001624
    42  H    0.000000   0.000000   0.000018  -0.000031  -0.000868   0.000829
    43  O    0.000000   0.000000   0.000002  -0.000016   0.000004   0.002322
    44  H    0.000000   0.000000  -0.000005  -0.000011   0.000189   0.000835
             19         20         21         22         23         24
     1  N    0.000000   0.000000   0.000000   0.000000  -0.079944   0.002861
     2  N    0.000000   0.000000   0.000000   0.000000  -0.067757   0.000001
     3  N    0.000000   0.000000   0.000000  -0.000131  -0.000002   0.000012
     4  N    0.000000   0.000000   0.004356  -0.058993   0.000002  -0.000168
     5  N    0.250283   0.251295  -0.060575   0.003593   0.000000   0.000000
     6  N    0.000000   0.000000  -0.000040  -0.000242   0.002273   0.002871
     7  C    0.000000   0.000000   0.000001  -0.000040   0.002670   0.390112
     8  C    0.000000   0.000000   0.000000  -0.000001  -0.083027  -0.030137
     9  C    0.000000   0.000000   0.000000   0.000000   0.337631  -0.000125
    10  C    0.000000   0.000000   0.000000   0.000001   0.275638  -0.003954
    11  C    0.000000   0.000000   0.000000  -0.000013  -0.042608   0.000222
    12  C    0.000000   0.000000   0.000000  -0.000001  -0.000035   0.000071
    13  C    0.000000   0.000000   0.000000   0.000004   0.000302  -0.000005
    14  C    0.000000   0.000000  -0.000042   0.001202  -0.000111   0.000254
    15  C    0.000006   0.000006  -0.048639   0.592348   0.000000   0.000733
    16  C   -0.000183  -0.000057  -0.039760  -0.047113   0.000000   0.000073
    17  C   -0.008953   0.002317  -0.040151  -0.041323   0.000000  -0.000129
    18  C   -0.047465  -0.048021   0.579034  -0.035961   0.000000  -0.000029
    19  C    4.950591  -0.049857   0.002160  -0.000063   0.000000   0.000000
    20  C   -0.049857   4.950271  -0.009167  -0.000222   0.000000   0.000000
    21  C    0.002160  -0.009167   5.006853   0.526684   0.000000   0.000014
    22  C   -0.000063  -0.000222   0.526684   4.904950   0.000000   0.000282
    23  S    0.000000   0.000000   0.000000   0.000000  15.383229   0.000099
    24  H    0.000000   0.000000   0.000014   0.000282   0.000099   0.477445
    25  H    0.000000   0.000000  -0.000001   0.000000  -0.000041  -0.023907
    26  H   -0.000001   0.000000  -0.000014  -0.000042   0.000026  -0.023405
    27  H    0.000000   0.000000   0.000000   0.000000   0.000272   0.000000
    28  H    0.000000   0.000000   0.000000   0.000000   0.003502   0.000000
    29  H    0.000000   0.000000   0.000048  -0.001988   0.000000   0.000001
    30  H    0.000000   0.000000   0.000000   0.000000   0.000251  -0.000001
    31  H    0.000000   0.000000   0.000000   0.000000  -0.000013   0.000000
    32  H   -0.000005   0.000002   0.000207   0.003476   0.000000  -0.000005
    33  H    0.000352  -0.000061   0.002697   0.000339   0.000000  -0.000001
    34  H    0.403969  -0.007137  -0.000051   0.000002   0.000000   0.000000
    35  H    0.404749   0.003973  -0.000076   0.000001   0.000000   0.000000
    36  H    0.392321   0.000386   0.000302  -0.000012   0.000000   0.000000
    37  H   -0.007112   0.404180   0.000456   0.000006   0.000000   0.000000
    38  H    0.000291   0.392253   0.001920  -0.000176   0.000000   0.000000
    39  H    0.004017   0.404682  -0.001354   0.000085   0.000000   0.000000
    40  H   -0.000066   0.000416   0.379711  -0.024891   0.000000   0.000000
    41  H    0.000002  -0.000004  -0.026822   0.376685   0.000000   0.000000
    42  H   -0.002826  -0.002812  -0.000804  -0.000027   0.000000   0.000001
    43  O    0.000699   0.000712   0.000001  -0.000014   0.000000   0.000001
    44  H   -0.000026  -0.000027   0.000155  -0.000013   0.000000   0.000015
             25         26         27         28         29         30
     1  N   -0.000751   0.000499   0.002436   0.004728   0.000000  -0.000005
     2  N   -0.000016   0.000000   0.330880   0.322199   0.000000   0.000000
     3  N    0.000000   0.000000   0.000000   0.000000   0.006728   0.002696
     4  N   -0.000001   0.000002   0.000000   0.000000   0.325708   0.000015
     5  N    0.000000  -0.000004   0.000000   0.000000   0.000000   0.000000
     6  N    0.000559   0.000011   0.000000   0.000000   0.003787   0.002505
     7  C    0.382377   0.386754   0.000002  -0.000020   0.000000  -0.000001
     8  C   -0.038065  -0.033609  -0.000165   0.000284   0.000000   0.000019
     9  C    0.000069  -0.000169  -0.026153  -0.023103   0.000000   0.000014
    10  C    0.004067  -0.003524   0.000046  -0.000071   0.000005  -0.000941
    11  C   -0.000266   0.000956  -0.000001   0.000000  -0.000102  -0.025255
    12  C    0.000004   0.000015   0.000000   0.000000   0.000020   0.374278
    13  C    0.000000   0.000000   0.000000   0.000000   0.000365  -0.021898
    14  C    0.000017  -0.000123   0.000000   0.000000  -0.020985   0.000461
    15  C    0.000006  -0.000044   0.000000   0.000000  -0.023421   0.000000
    16  C    0.000021   0.000905   0.000000   0.000000   0.001653   0.000000
    17  C    0.000005   0.001105   0.000000   0.000000  -0.000020   0.000000
    18  C   -0.000001   0.000034   0.000000   0.000000   0.000002   0.000000
    19  C    0.000000  -0.000001   0.000000   0.000000   0.000000   0.000000
    20  C    0.000000   0.000000   0.000000   0.000000   0.000000   0.000000
    21  C   -0.000001  -0.000014   0.000000   0.000000   0.000048   0.000000
    22  C    0.000000  -0.000042   0.000000   0.000000  -0.001988   0.000000
    23  S   -0.000041   0.000026   0.000272   0.003502   0.000000   0.000251
    24  H   -0.023907  -0.023405   0.000000   0.000000   0.000001  -0.000001
    25  H    0.517466  -0.025976   0.000000   0.000008   0.000000   0.000000
    26  H   -0.025976   0.505756   0.000000   0.000000   0.000000   0.000000
    27  H    0.000000   0.000000   0.322115  -0.016732   0.000000   0.000000
    28  H    0.000008   0.000000  -0.016732   0.311178   0.000000   0.000000
    29  H    0.000000   0.000000   0.000000   0.000000   0.306436  -0.000001
    30  H    0.000000   0.000000   0.000000   0.000000  -0.000001   0.445156
    31  H    0.000000   0.000000   0.000000   0.000000  -0.000034  -0.000101
    32  H    0.000000   0.000062   0.000000   0.000000  -0.000064   0.000000
    33  H    0.000000   0.000037   0.000000   0.000000   0.000002   0.000000
    34  H    0.000000   0.000000   0.000000   0.000000   0.000000   0.000000
    35  H    0.000000   0.000004   0.000000   0.000000   0.000000   0.000000
    36  H    0.000000   0.000000   0.000000   0.000000   0.000000   0.000000
    37  H    0.000000   0.000000   0.000000   0.000000   0.000000   0.000000
    38  H    0.000000   0.000000   0.000000   0.000000   0.000000   0.000000
    39  H    0.000000   0.000000   0.000000   0.000000   0.000000   0.000000
    40  H    0.000000   0.000000   0.000000   0.000000  -0.000001   0.000000
    41  H    0.000000   0.000000   0.000000   0.000000   0.001172   0.000000
    42  H   -0.000002   0.000001   0.000000   0.000000   0.000000   0.000000
    43  O    0.000004   0.000021   0.000000   0.000000   0.000000   0.000000
    44  H    0.000185   0.000083   0.000000   0.000000   0.000000   0.000000
             31         32         33         34         35         36
     1  N    0.000000   0.000000   0.000000   0.000000   0.000000   0.000000
     2  N    0.000000   0.000000   0.000000   0.000000   0.000000   0.000000
     3  N   -0.042648  -0.000014   0.000000   0.000000   0.000000   0.000000
     4  N   -0.000049  -0.003402  -0.000102   0.000000   0.000000   0.000000
     5  N    0.000000  -0.000071  -0.003752  -0.036378  -0.044906  -0.053651
     6  N   -0.000569   0.001851  -0.000007   0.000000   0.000000   0.000000
     7  C    0.000000   0.000011   0.000000   0.000000   0.000000   0.000000
     8  C    0.000001   0.000000   0.000000   0.000000   0.000000   0.000000
     9  C    0.000000   0.000000   0.000000   0.000000   0.000000   0.000000
    10  C   -0.000053  -0.000025   0.000000   0.000000   0.000000   0.000000
    11  C    0.002443  -0.000006   0.000000   0.000000   0.000000   0.000000
    12  C   -0.051587   0.000008   0.000000   0.000000   0.000000   0.000000
    13  C    0.406687  -0.000003   0.000000   0.000000   0.000000   0.000000
    14  C    0.003581   0.002238  -0.000003   0.000000   0.000000   0.000000
    15  C    0.000003  -0.023503   0.001645   0.000000  -0.000005  -0.000009
    16  C    0.000000   0.376335  -0.024661   0.000005   0.000127  -0.000200
    17  C    0.000000  -0.030300   0.380207   0.000431  -0.001467   0.001874
    18  C    0.000000   0.001602  -0.031240   0.003707  -0.002305   0.001089
    19  C    0.000000  -0.000005   0.000352   0.403969   0.404749   0.392321
    20  C    0.000000   0.000002  -0.000061  -0.007137   0.003973   0.000386
    21  C    0.000000   0.000207   0.002697  -0.000051  -0.000076   0.000302
    22  C    0.000000   0.003476   0.000339   0.000002   0.000001  -0.000012
    23  S   -0.000013   0.000000   0.000000   0.000000   0.000000   0.000000
    24  H    0.000000  -0.000005  -0.000001   0.000000   0.000000   0.000000
    25  H    0.000000   0.000000   0.000000   0.000000   0.000000   0.000000
    26  H    0.000000   0.000062   0.000037   0.000000   0.000004   0.000000
    27  H    0.000000   0.000000   0.000000   0.000000   0.000000   0.000000
    28  H    0.000000   0.000000   0.000000   0.000000   0.000000   0.000000
    29  H   -0.000034  -0.000064   0.000002   0.000000   0.000000   0.000000
    30  H   -0.000101   0.000000   0.000000   0.000000   0.000000   0.000000
    31  H    0.469309   0.000000   0.000000   0.000000   0.000000   0.000000
    32  H    0.000000   0.451121  -0.001842   0.000000  -0.000001  -0.000001
    33  H    0.000000  -0.001842   0.467845   0.000178  -0.001864  -0.000398
    34  H    0.000000   0.000000   0.000178   0.502406  -0.024669  -0.028903
    35  H    0.000000  -0.000001  -0.001864  -0.024669   0.524917  -0.041787
    36  H    0.000000  -0.000001  -0.000398  -0.028903  -0.041787   0.562322
    37  H    0.000000   0.000000   0.000001   0.001902   0.000243  -0.000020
    38  H    0.000000   0.000000   0.000003  -0.000004  -0.000344   0.002119
    39  H    0.000000   0.000000   0.000000   0.000234   0.000012  -0.000340
    40  H    0.000000   0.000011  -0.000120   0.000001  -0.000002   0.000006
    41  H    0.000000  -0.000129   0.000012   0.000000   0.000000   0.000000
    42  H    0.000000   0.000000   0.000025  -0.000402  -0.001499   0.000306
    43  O    0.000000   0.000000  -0.000005   0.000043   0.001255  -0.000010
    44  H    0.000000   0.000000   0.000010   0.000000   0.000019  -0.000002
             37         38         39         40         41         42
     1  N    0.000000   0.000000   0.000000   0.000000   0.000000   0.000000
     2  N    0.000000   0.000000   0.000000   0.000000   0.000000   0.000000
     3  N    0.000000   0.000000   0.000000   0.000000  -0.000025   0.000000
     4  N    0.000000   0.000000   0.000000  -0.000112   0.000156   0.000000
     5  N   -0.036466  -0.053979  -0.044910  -0.003897  -0.000075   0.018523
     6  N    0.000000   0.000000   0.000000   0.000000  -0.000026   0.000000
     7  C    0.000000   0.000000   0.000000   0.000000   0.000000   0.000001
     8  C    0.000000   0.000000   0.000000   0.000000   0.000000   0.000000
     9  C    0.000000   0.000000   0.000000   0.000000   0.000000   0.000000
    10  C    0.000000   0.000000   0.000000   0.000000   0.000000   0.000000
    11  C    0.000000   0.000000   0.000000   0.000000   0.000000   0.000000
    12  C    0.000000   0.000000   0.000000   0.000000   0.000000   0.000000
    13  C    0.000000   0.000000   0.000000   0.000000   0.000000   0.000000
    14  C    0.000000   0.000000   0.000000   0.000000   0.000201   0.000000
    15  C    0.000000  -0.000008  -0.000007   0.001739  -0.032543   0.000018
    16  C    0.000001  -0.000013   0.000003   0.000264   0.003290  -0.000031
    17  C   -0.000056   0.000210  -0.000048   0.002745   0.000253  -0.000868
    18  C    0.003656   0.000984  -0.001959  -0.030373   0.001624   0.000829
    19  C   -0.007112   0.000291   0.004017  -0.000066   0.000002  -0.002826
    20  C    0.404180   0.392253   0.404682   0.000416  -0.000004  -0.002812
    21  C    0.000456   0.001920  -0.001354   0.379711  -0.026822  -0.000804
    22  C    0.000006  -0.000176   0.000085  -0.024891   0.376685  -0.000027
    23  S    0.000000   0.000000   0.000000   0.000000   0.000000   0.000000
    24  H    0.000000   0.000000   0.000000   0.000000   0.000000   0.000001
    25  H    0.000000   0.000000   0.000000   0.000000   0.000000  -0.000002
    26  H    0.000000   0.000000   0.000000   0.000000   0.000000   0.000001
    27  H    0.000000   0.000000   0.000000   0.000000   0.000000   0.000000
    28  H    0.000000   0.000000   0.000000   0.000000   0.000000   0.000000
    29  H    0.000000   0.000000   0.000000  -0.000001   0.001172   0.000000
    30  H    0.000000   0.000000   0.000000   0.000000   0.000000   0.000000
    31  H    0.000000   0.000000   0.000000   0.000000   0.000000   0.000000
    32  H    0.000000   0.000000   0.000000   0.000011  -0.000129   0.000000
    33  H    0.000001   0.000003   0.000000  -0.000120   0.000012   0.000025
    34  H    0.001902  -0.000004   0.000234   0.000001   0.000000  -0.000402
    35  H    0.000243  -0.000344   0.000012  -0.000002   0.000000  -0.001499
    36  H   -0.000020   0.002119  -0.000340   0.000006   0.000000   0.000306
    37  H    0.501735  -0.029321  -0.024245   0.000183   0.000000  -0.000421
    38  H   -0.029321   0.564586  -0.041944  -0.000251  -0.000002   0.000305
    39  H   -0.024245  -0.041944   0.523985  -0.002119   0.000000  -0.001504
    40  H    0.000183  -0.000251  -0.002119   0.468394  -0.002047   0.000029
    41  H    0.000000  -0.000002   0.000000  -0.002047   0.467405   0.000000
    42  H   -0.000421   0.000305  -0.001504   0.000029   0.000000   0.262489
    43  O    0.000053  -0.000011   0.001176  -0.000003   0.000000   0.257205
    44  H    0.000000  -0.000002   0.000016   0.000006   0.000000  -0.018062
             43         44
     1  N    0.000000   0.000000
     2  N    0.000000   0.000000
     3  N    0.000000   0.000000
     4  N    0.000000   0.000000
     5  N   -0.011556   0.000040
     6  N    0.000000   0.000000
     7  C   -0.000001   0.000304
     8  C    0.000001   0.000001
     9  C    0.000000   0.000000
    10  C    0.000000   0.000000
    11  C    0.000000   0.000000
    12  C    0.000000   0.000000
    13  C    0.000000   0.000000
    14  C    0.000000   0.000000
    15  C    0.000002  -0.000005
    16  C   -0.000016  -0.000011
    17  C    0.000004   0.000189
    18  C    0.002322   0.000835
    19  C    0.000699  -0.000026
    20  C    0.000712  -0.000027
    21  C    0.000001   0.000155
    22  C   -0.000014  -0.000013
    23  S    0.000000   0.000000
    24  H    0.000001   0.000015
    25  H    0.000004   0.000185
    26  H    0.000021   0.000083
    27  H    0.000000   0.000000
    28  H    0.000000   0.000000
    29  H    0.000000   0.000000
    30  H    0.000000   0.000000
    31  H    0.000000   0.000000
    32  H    0.000000   0.000000
    33  H   -0.000005   0.000010
    34  H    0.000043   0.000000
    35  H    0.001255   0.000019
    36  H   -0.000010  -0.000002
    37  H    0.000053   0.000000
    38  H   -0.000011  -0.000002
    39  H    0.001176   0.000016
    40  H   -0.000003   0.000006
    41  H    0.000000   0.000000
    42  H    0.257205  -0.018062
    43  O    8.406376   0.268953
    44  H    0.268953   0.317906
 Mulliken atomic charges:
              1
     1  N   -0.587291
     2  N   -0.885737
     3  N   -0.627102
     4  N   -0.913977
     5  N   -0.709409
     6  N   -0.687464
     7  C   -0.498826
     8  C    0.337330
     9  C    0.386224
    10  C   -0.380548
    11  C    0.422813
    12  C   -0.367284
    13  C    0.122622
    14  C    0.862211
    15  C    0.290547
    16  C   -0.163710
    17  C   -0.282421
    18  C    0.360476
    19  C   -0.292881
    20  C   -0.293129
    21  C   -0.277104
    22  C   -0.198390
    23  S    0.267644
    24  H    0.206797
    25  H    0.184239
    26  H    0.190641
    27  H    0.387300
    28  H    0.398027
    29  H    0.400689
    30  H    0.222809
    31  H    0.213031
    32  H    0.222446
    33  H    0.210704
    34  H    0.184665
    35  H    0.183626
    36  H    0.164611
    37  H    0.185224
    38  H    0.163383
    39  H    0.184221
    40  H    0.210376
    41  H    0.210873
    42  H    0.489526
    43  O   -0.927212
    44  H    0.429431
 Sum of Mulliken atomic charges =   0.00000
 Mulliken charges with hydrogens summed into heavy atoms:
              1
     1  N   -0.587291
     2  N   -0.100410
     3  N   -0.627102
     4  N   -0.513288
     5  N   -0.709409
     6  N   -0.687464
     7  C    0.082852
     8  C    0.337330
     9  C    0.386224
    10  C   -0.380548
    11  C    0.422813
    12  C   -0.144475
    13  C    0.335652
    14  C    0.862211
    15  C    0.290547
    16  C    0.058736
    17  C   -0.071717
    18  C    0.360476
    19  C    0.240020
    20  C    0.239699
    21  C   -0.066728
    22  C    0.012483
    23  S    0.267644
    43  O   -0.008255
 Sum of Mulliken charges with hydrogens summed into heavy atoms =   0.00000
 Electronic spatial extent (au):  <R**2>=          11417.3440
 Charge=              0.0000 electrons
 Dipole moment (field-independent basis, Debye):
    X=             -0.4965    Y=              0.6125    Z=              2.3676  Tot=              2.4955
 Quadrupole moment (field-independent basis, Debye-Ang):
   XX=           -111.6065   YY=           -155.0146   ZZ=           -150.8359
   XY=             11.8197   XZ=             -3.8537   YZ=            -15.0475
 Traceless Quadrupole moment (field-independent basis, Debye-Ang):
   XX=             27.5458   YY=            -15.8622   ZZ=            -11.6836
   XY=             11.8197   XZ=             -3.8537   YZ=            -15.0475
 Octapole moment (field-independent basis, Debye-Ang**2):
  XXX=            -73.3264  YYY=             93.3485  ZZZ=             41.6068  XYY=           -112.9967
  XXY=            -37.7296  XXZ=             66.2892  XZZ=            -17.0008  YZZ=             29.3362
  YYZ=             56.3547  XYZ=            -16.8644
 Hexadecapole moment (field-independent basis, Debye-Ang**3):
 XXXX=          -9293.3879 YYYY=          -3918.0404 ZZZZ=           -628.0702 XXXY=            423.9963
 XXXZ=           -198.5334 YYYX=            639.3067 YYYZ=           -323.5510 ZZZX=            125.9698
 ZZZY=           -160.3173 XXYY=          -2132.5222 XXZZ=          -1964.5991 YYZZ=           -798.8456
 XXYZ=           -337.0800 YYXZ=             92.7601 ZZXY=            138.9050
 N-N= 2.133712637104D+03 E-N=-7.595436554695D+03  KE= 1.415231368849D+03
 Calling FoFJK, ICntrl=      2127 FMM=F ISym2X=0 I1Cent= 0 IOpClX= 0 NMat=1 NMatS=1 NMatT=0.
 -------------------------------------------------------------------
 Center     Atomic                   Forces (Hartrees/Bohr)
 Number     Number              X              Y              Z
 -------------------------------------------------------------------
      1        7           0.000819224    0.000281355   -0.000202518
      2        7           0.000481366    0.000387025    0.000092244
      3        7           0.000832178   -0.000543418   -0.000009787
      4        7           0.001448881   -0.000418861    0.000004923
      5        7          -0.000787167   -0.004657476   -0.002616938
      6        7           0.000959899    0.000319389   -0.000039726
      7        6           0.000401638   -0.000052265   -0.000038711
      8        6          -0.000726034   -0.000302383    0.000128939
      9        6          -0.000571752   -0.000352406    0.000064382
     10        6           0.000057506    0.000132014    0.000006105
     11        6          -0.000662282   -0.000106418   -0.000033729
     12        6           0.000244418   -0.000124893    0.000003727
     13        6          -0.000350254    0.000100893   -0.000016909
     14        6          -0.001866069   -0.000029871    0.000134508
     15        6          -0.000442277    0.000431600    0.000068586
     16        6          -0.000662792    0.000234122    0.000069023
     17        6           0.000599734   -0.000909776   -0.000534241
     18        6          -0.003150926    0.007092328    0.001946628
     19        6           0.001244853   -0.001355287    0.003910494
     20        6           0.003753884    0.001317022   -0.001687090
     21        6           0.000407815   -0.001138390    0.000044648
     22        6          -0.000290843    0.000499563   -0.000159234
     23       16           0.000195481    0.000063868   -0.000039279
     24        1          -0.000219712    0.000361828   -0.000134020
     25        1          -0.000292994   -0.000252884   -0.000080858
     26        1          -0.000117478   -0.000117371    0.000320615
     27        1          -0.000072178    0.000000151   -0.000032625
     28        1          -0.000015580   -0.000084207   -0.000065159
     29        1           0.000158090    0.000045402   -0.000131199
     30        1           0.000048406   -0.000006315    0.000005194
     31        1           0.000047750   -0.000047165   -0.000000653
     32        1           0.000106260   -0.000033701   -0.000074509
     33        1           0.000027447    0.000095034    0.000124154
     34        1          -0.000452719    0.000178407   -0.000148520
     35        1           0.000284251    0.000030974   -0.000371574
     36        1          -0.000136140    0.000239964   -0.000800905
     37        1          -0.000466674    0.000167988   -0.000100434
     38        1          -0.000687754   -0.000342883    0.000396375
     39        1          -0.000051701   -0.000322666    0.000334828
     40        1           0.000026009    0.000089614    0.000031796
     41        1           0.000049673   -0.000131862    0.000085662
     42        1           0.001889569    0.002559145    0.002044030
     43        8          -0.002647616   -0.003444132   -0.002793919
     44        1           0.000586612    0.000146945    0.000295679
 -------------------------------------------------------------------
 Cartesian Forces:  Max     0.007092328 RMS     0.001200198
 -----------------------------------------------------------------------------------------------
                       Internal Coordinate Forces (Hartree/Bohr or radian)
  Cent   Atom   N1       Length/X         N2         Alpha/Y        N3         Beta/Z          J
 -----------------------------------------------------------------------------------------------
      1  N            0.000819(     1)      0.000281(    48)     -0.000203(    95)
      2  N            0.000481(     2)      0.000387(    49)      0.000092(    96)
      3  N            0.000832(     3)     -0.000543(    50)     -0.000010(    97)
      4  N            0.001449(     4)     -0.000419(    51)      0.000005(    98)
      5  N           -0.000559(     5)     -0.005721(    52)     -0.003048(    99)
      6  N            0.000960(     6)      0.000319(    53)     -0.000040(   100)
      7  C            0.000402(     7)     -0.000052(    54)     -0.000039(   101)
      8  C           -0.000726(     8)     -0.000302(    55)      0.000129(   102)
      9  C           -0.000572(     9)     -0.000352(    56)      0.000064(   103)
     10  C            0.000058(    10)      0.000132(    57)      0.000006(   104)
     11  C           -0.000662(    11)     -0.000106(    58)     -0.000034(   105)
     12  C            0.000244(    12)     -0.000125(    59)      0.000004(   106)
     13  C           -0.000350(    13)      0.000101(    60)     -0.000017(   107)
     14  C           -0.001866(    14)     -0.000030(    61)      0.000135(   108)
     15  C           -0.000442(    15)      0.000432(    62)      0.000069(   109)
     16  C           -0.000663(    16)      0.000234(    63)      0.000069(   110)
     17  C            0.000600(    17)     -0.000910(    64)     -0.000534(   111)
     18  C           -0.003151(    18)      0.007092(    65)      0.001947(   112)
     19  C            0.001245(    19)     -0.001355(    66)      0.003910(   113)
     20  C            0.003754(    20)      0.001317(    67)     -0.001687(   114)
     21  C            0.000408(    21)     -0.001138(    68)      0.000045(   115)
     22  C           -0.000291(    22)      0.000500(    69)     -0.000159(   116)
     23  S            0.000195(    23)      0.000064(    70)     -0.000039(   117)
     24  H           -0.000220(    24)      0.000362(    71)     -0.000134(   118)
     25  H           -0.000293(    25)     -0.000253(    72)     -0.000081(   119)
     26  H           -0.000117(    26)     -0.000117(    73)      0.000321(   120)
     27  H           -0.000072(    27)      0.000000(    74)     -0.000033(   121)
     28  H           -0.000016(    28)     -0.000084(    75)     -0.000065(   122)
     29  H            0.000158(    29)      0.000045(    76)     -0.000131(   123)
     30  H            0.000048(    30)     -0.000006(    77)      0.000005(   124)
     31  H            0.000048(    31)     -0.000047(    78)     -0.000001(   125)
     32  H            0.000106(    32)     -0.000034(    79)     -0.000075(   126)
     33  H            0.000027(    33)      0.000095(    80)      0.000124(   127)
     34  H           -0.000453(    34)      0.000178(    81)     -0.000149(   128)
     35  H            0.000284(    35)      0.000031(    82)     -0.000372(   129)
     36  H           -0.000136(    36)      0.000240(    83)     -0.000801(   130)
     37  H           -0.000467(    37)      0.000168(    84)     -0.000100(   131)
     38  H           -0.000688(    38)     -0.000343(    85)      0.000396(   132)
     39  H           -0.000052(    39)     -0.000323(    86)      0.000335(   133)
     40  H            0.000026(    40)      0.000090(    87)      0.000032(   134)
     41  H            0.000050(    41)     -0.000132(    88)      0.000086(   135)
         X           -0.000401(    42)      0.000346(    89)     -0.000014(   136)
         X            0.000001(    43)     -0.000020(    90)     -0.000009(   137)
     42  H        5   0.000815(    44)     43   0.000049(    91)     42   0.001500(   138)     0
         X       44   0.000000(    45)      5   0.000100(    92)     43   0.000131(   139)     0
     43  O       44   0.004591(    46)     45   0.000100(    93)     43   0.000131(   140)     0
     44  H       46  -0.000497(    47)     44  -0.000812(    94)     45   0.000039(   141)     0
 -----------------------------------------------------------------------------------------------
 Internal  Forces:  Max     0.007092328 RMS     0.001152029

 GradGradGradGradGradGradGradGradGradGradGradGradGradGradGradGradGradGrad
 Berny optimization.
 Search for a local minimum.
 Step number   1 out of a maximum of  100
 All quantities printed in internal units (Hartrees-Bohrs-Radians)
 Second derivative matrix not updated -- first step.
 The second derivative matrix:
                          roh       phi
           roh          0.03495
           phi          0.00000   0.00000
     Eigenvalues ---    0.00000   0.03495
 RFO step:  Lambda=-4.94480133D-05 EMin=-5.25076920D-18
 RFO eigenvector is Hessian eigenvector with negative curvature.
 Taking step of  7.50D-01 in eigenvector direction.  Step.Grad= -2.91D-05.
 Linear search not attempted -- first point.
 Maximum step size (   0.300) exceeded in Quadratic search.
    -- Step size scaled by   0.400
 Variable       Old X    -DE/DX   Delta X   Delta X   Delta X     New X
                                 (Linear)    (Quad)   (Total)
   roh        4.02644   0.00082   0.00000   0.00000   0.00000   4.02644
   phi        4.67400   0.00004   0.00000   0.30000   0.30000   4.97400
         Item               Value     Threshold  Converged?
 Maximum Force            0.000815     0.000450     NO 
 RMS     Force            0.000577     0.000300     NO 
 Maximum Displacement     0.300000     0.001800     NO 
 RMS     Displacement     0.212132     0.001200     NO 
 Predicted change in Energy=-1.164315D-05
 GradGradGradGradGradGradGradGradGradGradGradGradGradGradGradGradGradGrad

 ---------------------------------------------------------------------------------------------------
                            Z-MATRIX (ANGSTROMS AND DEGREES)
   CD    Cent   Atom    N1       Length/X        N2       Alpha/Y        N3        Beta/Z          J
 ---------------------------------------------------------------------------------------------------
      1      1  N        0  -3.013310         -2.511550         -0.412190
      2      2  N        0  -5.227560         -3.080250          0.017760
      3      3  N        0  -0.978170          3.560350          0.131290
      4      4  N        0   1.039990          2.528080          0.168310
      5      5  N        0   4.965790         -1.515470         -0.008700
      6      6  N        0  -0.840430          1.198040          0.040700
      7      7  C        0  -0.761600         -1.677320         -0.873750
      8      8  C        0  -2.178550         -1.415950         -0.453810
      9      9  C        0  -4.200080         -2.188550         -0.056910
     10     10  C        0  -2.743260         -0.232570         -0.111110
     11     11  C        0  -2.161610          1.109840         -0.029690
     12     12  C        0  -2.958510          2.253840         -0.018700
[...]
    10  C    0.000000   0.000000   0.000000   0.000001   0.275653  -0.003958
    11  C    0.000000   0.000000   0.000000  -0.000013  -0.042605   0.000224
    12  C    0.000000   0.000000   0.000000  -0.000001  -0.000035   0.000072
    13  C    0.000000   0.000000   0.000000   0.000004   0.000302  -0.000005
    14  C    0.000000   0.000000  -0.000042   0.001202  -0.000111   0.000254
    15  C    0.000006   0.000006  -0.048690   0.592411   0.000000   0.000735
    16  C   -0.000187  -0.000058  -0.039751  -0.047124   0.000000   0.000073
    17  C   -0.009014   0.002324  -0.040144  -0.041309   0.000000  -0.000129
    18  C   -0.047458  -0.048034   0.578774  -0.035890   0.000000  -0.000029
    19  C    4.949692  -0.050015   0.002169  -0.000064   0.000000   0.000000
    20  C   -0.050015   4.949305  -0.009230  -0.000227   0.000000   0.000000
    21  C    0.002169  -0.009230   5.007737   0.526726   0.000000   0.000014
    22  C   -0.000064  -0.000227   0.526726   4.904752   0.000000   0.000283
    23  S    0.000000   0.000000   0.000000   0.000000  15.383191   0.000099
    24  H    0.000000   0.000000   0.000014   0.000283   0.000099   0.477450
    25  H    0.000000   0.000000  -0.000001   0.000000  -0.000041  -0.023937
    26  H   -0.000001   0.000000  -0.000013  -0.000042   0.000026  -0.023384
    27  H    0.000000   0.000000   0.000000   0.000000   0.000272   0.000000
    28  H    0.000000   0.000000   0.000000   0.000000   0.003502   0.000000
    29  H    0.000000   0.000000   0.000049  -0.001990   0.000000   0.000001
    30  H    0.000000   0.000000   0.000000   0.000000   0.000251  -0.000001
    31  H    0.000000   0.000000   0.000000   0.000000  -0.000013   0.000000
    32  H   -0.000005   0.000002   0.000207   0.003478   0.000000  -0.000005
    33  H    0.000346  -0.000061   0.002698   0.000341   0.000000  -0.000001
    34  H    0.403988  -0.007161  -0.000050   0.000002   0.000000   0.000000
    35  H    0.404759   0.003960  -0.000076   0.000002   0.000000   0.000000
    36  H    0.392242   0.000418   0.000300  -0.000013   0.000000   0.000000
    37  H   -0.007137   0.404205   0.000458   0.000006   0.000000   0.000000
    38  H    0.000325   0.392160   0.001935  -0.000178   0.000000   0.000000
    39  H    0.004005   0.404674  -0.001332   0.000087   0.000000   0.000000
    40  H   -0.000065   0.000409   0.379713  -0.024913   0.000000   0.000000
    41  H    0.000002  -0.000004  -0.026845   0.376690   0.000000   0.000000
    42  H   -0.002580  -0.002561  -0.000730  -0.000026   0.000000   0.000001
    43  O    0.000561   0.000577   0.000004  -0.000012   0.000000   0.000001
    44  H   -0.000021  -0.000022   0.000142  -0.000011   0.000000   0.000014
             25         26         27         28         29         30
     1  N   -0.000752   0.000501   0.002436   0.004728   0.000000  -0.000005
     2  N   -0.000016   0.000000   0.330880   0.322200   0.000000   0.000000
     3  N    0.000000   0.000000   0.000000   0.000000   0.006728   0.002696
     4  N   -0.000001   0.000002   0.000000   0.000000   0.325727   0.000015
     5  N    0.000000  -0.000004   0.000000   0.000000   0.000000   0.000000
     6  N    0.000559   0.000011   0.000000   0.000000   0.003787   0.002505
     7  C    0.382297   0.386784   0.000002  -0.000020   0.000000  -0.000001
     8  C   -0.038043  -0.033608  -0.000165   0.000284   0.000000   0.000019
     9  C    0.000069  -0.000169  -0.026153  -0.023103   0.000000   0.000014
    10  C    0.004068  -0.003525   0.000046  -0.000071   0.000005  -0.000941
    11  C   -0.000265   0.000956  -0.000001   0.000000  -0.000102  -0.025260
    12  C    0.000004   0.000015   0.000000   0.000000   0.000019   0.374279
    13  C    0.000000   0.000000   0.000000   0.000000   0.000365  -0.021898
    14  C    0.000017  -0.000123   0.000000   0.000000  -0.021009   0.000461
    15  C    0.000006  -0.000045   0.000000   0.000000  -0.023428   0.000000
    16  C    0.000021   0.000906   0.000000   0.000000   0.001653   0.000000
    17  C    0.000005   0.001107   0.000000   0.000000  -0.000019   0.000000
    18  C   -0.000001   0.000034   0.000000   0.000000   0.000002   0.000000
    19  C    0.000000  -0.000001   0.000000   0.000000   0.000000   0.000000
    20  C    0.000000   0.000000   0.000000   0.000000   0.000000   0.000000
    21  C   -0.000001  -0.000013   0.000000   0.000000   0.000049   0.000000
    22  C    0.000000  -0.000042   0.000000   0.000000  -0.001990   0.000000
    23  S   -0.000041   0.000026   0.000272   0.003502   0.000000   0.000251
    24  H   -0.023937  -0.023384   0.000000   0.000000   0.000001  -0.000001
    25  H    0.517866  -0.025987   0.000000   0.000008   0.000000   0.000000
    26  H   -0.025987   0.505538   0.000000   0.000000   0.000000   0.000000
    27  H    0.000000   0.000000   0.322112  -0.016732   0.000000   0.000000
    28  H    0.000008   0.000000  -0.016732   0.311182   0.000000   0.000000
    29  H    0.000000   0.000000   0.000000   0.000000   0.306492  -0.000001
    30  H    0.000000   0.000000   0.000000   0.000000  -0.000001   0.445190
    31  H    0.000000   0.000000   0.000000   0.000000  -0.000034  -0.000101
    32  H    0.000000   0.000062   0.000000   0.000000  -0.000064   0.000000
    33  H    0.000000   0.000037   0.000000   0.000000   0.000002   0.000000
    34  H    0.000000   0.000000   0.000000   0.000000   0.000000   0.000000
    35  H    0.000000   0.000004   0.000000   0.000000   0.000000   0.000000
    36  H    0.000000   0.000000   0.000000   0.000000   0.000000   0.000000
    37  H    0.000000   0.000000   0.000000   0.000000   0.000000   0.000000
    38  H    0.000000   0.000000   0.000000   0.000000   0.000000   0.000000
    39  H    0.000000   0.000000   0.000000   0.000000   0.000000   0.000000
    40  H    0.000000   0.000000   0.000000   0.000000  -0.000001   0.000000
    41  H    0.000000   0.000000   0.000000   0.000000   0.001172   0.000000
    42  H   -0.000002   0.000001   0.000000   0.000000   0.000000   0.000000
    43  O    0.000005   0.000021   0.000000   0.000000   0.000000   0.000000
    44  H    0.000198   0.000076   0.000000   0.000000   0.000000   0.000000
             31         32         33         34         35         36
     1  N    0.000000   0.000000   0.000000   0.000000   0.000000   0.000000
     2  N    0.000000   0.000000   0.000000   0.000000   0.000000   0.000000
     3  N   -0.042649  -0.000014   0.000000   0.000000   0.000000   0.000000
     4  N   -0.000049  -0.003402  -0.000102   0.000000   0.000000   0.000000
     5  N    0.000000  -0.000071  -0.003758  -0.036407  -0.044891  -0.053968
     6  N   -0.000569   0.001850  -0.000007   0.000000   0.000000   0.000000
     7  C    0.000000   0.000011   0.000000   0.000000   0.000000   0.000000
     8  C    0.000001   0.000000   0.000000   0.000000   0.000000   0.000000
     9  C    0.000000   0.000000   0.000000   0.000000   0.000000   0.000000
    10  C   -0.000053  -0.000025   0.000000   0.000000   0.000000   0.000000
    11  C    0.002443  -0.000006   0.000000   0.000000   0.000000   0.000000
    12  C   -0.051594   0.000008   0.000000   0.000000   0.000000   0.000000
    13  C    0.406690  -0.000003   0.000000   0.000000   0.000000   0.000000
    14  C    0.003581   0.002238  -0.000003   0.000000   0.000000   0.000000
    15  C    0.000003  -0.023518   0.001644   0.000000  -0.000005  -0.000009
    16  C    0.000000   0.376343  -0.024678   0.000006   0.000128  -0.000202
    17  C    0.000000  -0.030312   0.380201   0.000433  -0.001459   0.001893
    18  C    0.000000   0.001602  -0.031242   0.003680  -0.002394   0.001182
    19  C    0.000000  -0.000005   0.000346   0.403988   0.404759   0.392242
    20  C    0.000000   0.000002  -0.000061  -0.007161   0.003960   0.000418
    21  C    0.000000   0.000207   0.002698  -0.000050  -0.000076   0.000300
    22  C    0.000000   0.003478   0.000341   0.000002   0.000002  -0.000013
    23  S   -0.000013   0.000000   0.000000   0.000000   0.000000   0.000000
    24  H    0.000000  -0.000005  -0.000001   0.000000   0.000000   0.000000
    25  H    0.000000   0.000000   0.000000   0.000000   0.000000   0.000000
    26  H    0.000000   0.000062   0.000037   0.000000   0.000004   0.000000
    27  H    0.000000   0.000000   0.000000   0.000000   0.000000   0.000000
    28  H    0.000000   0.000000   0.000000   0.000000   0.000000   0.000000
    29  H   -0.000034  -0.000064   0.000002   0.000000   0.000000   0.000000
    30  H   -0.000101   0.000000   0.000000   0.000000   0.000000   0.000000
    31  H    0.469336   0.000000   0.000000   0.000000   0.000000   0.000000
    32  H    0.000000   0.451258  -0.001843   0.000000  -0.000001  -0.000001
    33  H    0.000000  -0.001843   0.468044   0.000177  -0.001874  -0.000386
    34  H    0.000000   0.000000   0.000177   0.502902  -0.024706  -0.028982
    35  H    0.000000  -0.000001  -0.001874  -0.024706   0.525558  -0.041931
    36  H    0.000000  -0.000001  -0.000386  -0.028982  -0.041931   0.563091
    37  H    0.000000   0.000000   0.000001   0.001907   0.000242  -0.000026
    38  H    0.000000   0.000000   0.000003  -0.000009  -0.000345   0.002147
    39  H    0.000000   0.000000   0.000000   0.000234   0.000012  -0.000341
    40  H    0.000000   0.000011  -0.000120   0.000001  -0.000002   0.000006
    41  H    0.000000  -0.000129   0.000012   0.000000   0.000000   0.000000
    42  H    0.000000   0.000000   0.000027  -0.000353  -0.001400   0.000272
    43  O    0.000000   0.000000  -0.000004   0.000038   0.001104  -0.000009
    44  H    0.000000   0.000000   0.000008   0.000000   0.000017  -0.000002
             37         38         39         40         41         42
     1  N    0.000000   0.000000   0.000000   0.000000   0.000000   0.000000
     2  N    0.000000   0.000000   0.000000   0.000000   0.000000   0.000000
     3  N    0.000000   0.000000   0.000000   0.000000  -0.000025   0.000000
     4  N    0.000000   0.000000   0.000000  -0.000112   0.000156   0.000000
     5  N   -0.036490  -0.054297  -0.044912  -0.003904  -0.000075   0.018037
     6  N    0.000000   0.000000   0.000000   0.000000  -0.000026   0.000000
     7  C    0.000000   0.000000   0.000000   0.000000   0.000000   0.000001
     8  C    0.000000   0.000000   0.000000   0.000000   0.000000   0.000000
     9  C    0.000000   0.000000   0.000000   0.000000   0.000000   0.000000
    10  C    0.000000   0.000000   0.000000   0.000000   0.000000   0.000000
    11  C    0.000000   0.000000   0.000000   0.000000   0.000000   0.000000
    12  C    0.000000   0.000000   0.000000   0.000000   0.000000   0.000000
    13  C    0.000000   0.000000   0.000000   0.000000   0.000000   0.000000
    14  C    0.000000   0.000000   0.000000   0.000000   0.000201   0.000000
    15  C    0.000000  -0.000008  -0.000007   0.001738  -0.032555   0.000017
    16  C    0.000001  -0.000014   0.000003   0.000265   0.003291  -0.000030
    17  C   -0.000055   0.000208  -0.000047   0.002746   0.000252  -0.000783
    18  C    0.003629   0.001079  -0.002065  -0.030388   0.001624   0.000828
    19  C   -0.007137   0.000325   0.004005  -0.000065   0.000002  -0.002580
    20  C    0.404205   0.392160   0.404674   0.000409  -0.000004  -0.002561
    21  C    0.000458   0.001935  -0.001332   0.379713  -0.026845  -0.000730
    22  C    0.000006  -0.000178   0.000087  -0.024913   0.376690  -0.000026
    23  S    0.000000   0.000000   0.000000   0.000000   0.000000   0.000000
    24  H    0.000000   0.000000   0.000000   0.000000   0.000000   0.000001
    25  H    0.000000   0.000000   0.000000   0.000000   0.000000  -0.000002
    26  H    0.000000   0.000000   0.000000   0.000000   0.000000   0.000001
    27  H    0.000000   0.000000   0.000000   0.000000   0.000000   0.000000
    28  H    0.000000   0.000000   0.000000   0.000000   0.000000   0.000000
    29  H    0.000000   0.000000   0.000000  -0.000001   0.001172   0.000000
    30  H    0.000000   0.000000   0.000000   0.000000   0.000000   0.000000
    31  H    0.000000   0.000000   0.000000   0.000000   0.000000   0.000000
    32  H    0.000000   0.000000   0.000000   0.000011  -0.000129   0.000000
    33  H    0.000001   0.000003   0.000000  -0.000120   0.000012   0.000027
    34  H    0.001907  -0.000009   0.000234   0.000001   0.000000  -0.000353
    35  H    0.000242  -0.000345   0.000012  -0.000002   0.000000  -0.001400
    36  H   -0.000026   0.002147  -0.000341   0.000006   0.000000   0.000272
    37  H    0.502207  -0.029400  -0.024288   0.000183   0.000000  -0.000370
    38  H   -0.029400   0.565377  -0.042102  -0.000236  -0.000002   0.000272
    39  H   -0.024288  -0.042102   0.524861  -0.002133   0.000000  -0.001399
    40  H    0.000183  -0.000236  -0.002133   0.468663  -0.002049   0.000029
    41  H    0.000000  -0.000002   0.000000  -0.002049   0.467578   0.000000
    42  H   -0.000370   0.000272  -0.001399   0.000029   0.000000   0.266228
    43  O    0.000046  -0.000009   0.001036  -0.000003   0.000000   0.258056
    44  H    0.000000  -0.000002   0.000016   0.000006   0.000000  -0.018053
             43         44
     1  N    0.000000   0.000000
     2  N    0.000000   0.000000
     3  N    0.000000   0.000000
     4  N    0.000000   0.000000
     5  N   -0.009600  -0.000005
     6  N    0.000000   0.000000
     7  C   -0.000001   0.000305
     8  C    0.000001   0.000001
     9  C    0.000000   0.000000
    10  C    0.000000   0.000000
    11  C    0.000000   0.000000
    12  C    0.000000   0.000000
    13  C    0.000000   0.000000
    14  C    0.000000   0.000000
    15  C    0.000001  -0.000004
    16  C   -0.000013  -0.000010
    17  C    0.000006   0.000166
    18  C    0.001934   0.000733
    19  C    0.000561  -0.000021
    20  C    0.000577  -0.000022
    21  C    0.000004   0.000142
    22  C   -0.000012  -0.000011
    23  S    0.000000   0.000000
    24  H    0.000001   0.000014
    25  H    0.000005   0.000198
    26  H    0.000021   0.000076
    27  H    0.000000   0.000000
    28  H    0.000000   0.000000
    29  H    0.000000   0.000000
    30  H    0.000000   0.000000
    31  H    0.000000   0.000000
    32  H    0.000000   0.000000
    33  H   -0.000004   0.000008
    34  H    0.000038   0.000000
    35  H    0.001104   0.000017
    36  H   -0.000009  -0.000002
    37  H    0.000046   0.000000
    38  H   -0.000009  -0.000002
    39  H    0.001036   0.000016
    40  H   -0.000003   0.000006
    41  H    0.000000   0.000000
    42  H    0.258056  -0.018053
    43  O    8.400584   0.268898
    44  H    0.268898   0.317494
 Mulliken atomic charges:
              1
     1  N   -0.587309
     2  N   -0.885743
     3  N   -0.627095
     4  N   -0.913939
     5  N   -0.705836
     6  N   -0.687450
     7  C   -0.498809
     8  C    0.337319
     9  C    0.386216
    10  C   -0.380516
    11  C    0.422794
    12  C   -0.367315
    13  C    0.122621
    14  C    0.862190
    15  C    0.290305
    16  C   -0.163697
    17  C   -0.282714
    18  C    0.361548
    19  C   -0.293020
    20  C   -0.293180
    21  C   -0.277677
    22  C   -0.198354
    23  S    0.267664
    24  H    0.206799
    25  H    0.183925
    26  H    0.190820
    27  H    0.387303
    28  H    0.398024
    29  H    0.400645
    30  H    0.222779
    31  H    0.213008
    32  H    0.222331
    33  H    0.210538
    34  H    0.184300
    35  H    0.183298
    36  H    0.164318
    37  H    0.184881
    38  H    0.163095
    39  H    0.183697
    40  H    0.210155
    41  H    0.210729
    42  H    0.484519
    43  O   -0.923221
    44  H    0.430055
 Sum of Mulliken atomic charges =   0.00000
 Mulliken charges with hydrogens summed into heavy atoms:
              1
     1  N   -0.587309
     2  N   -0.100417
     3  N   -0.627095
     4  N   -0.513294
     5  N   -0.705836
     6  N   -0.687450
     7  C    0.082735
     8  C    0.337319
     9  C    0.386216
    10  C   -0.380516
    11  C    0.422794
    12  C   -0.144536
    13  C    0.335629
    14  C    0.862190
    15  C    0.290305
    16  C    0.058633
    17  C   -0.072176
    18  C    0.361548
    19  C    0.238896
    20  C    0.238494
    21  C   -0.067522
    22  C    0.012375
    23  S    0.267664
    43  O   -0.008647
 Sum of Mulliken charges with hydrogens summed into heavy atoms =   0.00000
 Electronic spatial extent (au):  <R**2>=          11422.3909
 Charge=              0.0000 electrons
 Dipole moment (field-independent basis, Debye):
    X=             -0.4932    Y=              0.6005    Z=              2.3437  Tot=              2.4691
 Quadrupole moment (field-independent basis, Debye-Ang):
   XX=           -111.6300   YY=           -155.1481   ZZ=           -150.8216
   XY=             11.7404   XZ=             -3.9266   YZ=            -15.0488
 Traceless Quadrupole moment (field-independent basis, Debye-Ang):
   XX=             27.5698   YY=            -15.9482   ZZ=            -11.6217
   XY=             11.7404   XZ=             -3.9266   YZ=            -15.0488
 Octapole moment (field-independent basis, Debye-Ang**2):
  XXX=            -73.2237  YYY=             95.1859  ZZZ=             42.1447  XYY=           -112.9479
  XXY=            -37.9795  XXZ=             66.1776  XZZ=            -16.9034  YZZ=             29.7122
  YYZ=             57.0480  XYZ=            -16.8450
 Hexadecapole moment (field-independent basis, Debye-Ang**3):
 XXXX=          -9291.4112 YYYY=          -3935.0348 ZZZZ=           -632.1610 XXXY=            422.5148
 XXXZ=           -198.9147 YYYX=            642.2957 YYYZ=           -330.3924 ZZZX=            127.2658
 ZZZY=           -163.8594 XXYY=          -2132.1109 XXZZ=          -1964.4813 YYZZ=           -802.6958
 XXYZ=           -337.4572 YYXZ=             94.5607 ZZXY=            139.9131
 N-N= 2.132738165999D+03 E-N=-7.593488037176D+03  KE= 1.415225882029D+03
 1\1\GINC-B41\FOpt\RHF\6-31G(d)\C16H20N6O1S1\RUPAKHETIC\28-Mar-2018\1\\
 #HF/6-31G* nosymm SCF=Tight opt=(Z-MATRIX,MaxCycle=200)\\Mol-Water Dim
 er\\0,1\N,0,-3.01331,-2.51155,-0.41219\N,0,-5.22756,-3.08025,0.01776\N
 ,0,-0.97817,3.56035,0.13129\N,0,1.03999,2.52808,0.16831\N,0,4.96579,-1
 .51547,-0.0087\N,0,-0.84043,1.19804,0.0407\C,0,-0.7616,-1.67732,-0.873
 75\C,0,-2.17855,-1.41595,-0.45381\C,0,-4.20008,-2.18855,-0.05691\C,0,-
 2.74326,-0.23257,-0.11111\C,0,-2.16161,1.10984,-0.02969\C,0,-2.95851,2
 .25384,-0.0187\C,0,-2.28736,3.45662,0.06768\C,0,-0.31018,2.40783,0.107
 02\C,0,2.00032,1.48794,0.11857\C,0,2.04918,0.49089,1.08054\C,0,3.01909
 ,-0.49053,1.0434\C,0,4.00146,-0.50964,0.04361\C,0,5.18471,-2.31613,1.1
 765\C,0,6.11511,-1.31633,-0.86371\C,0,3.95701,0.51458,-0.90628\C,0,2.9
 6534,1.47999,-0.87153\S,0,-4.44477,-0.50304,0.26866\H,0,-0.3237,-0.829
 86,-1.37539\H,0,-0.74791,-2.54516,-1.52064\H,0,-0.14764,-1.89114,-0.00
 521\H,0,-5.97008,-2.88098,0.65016\H,0,-4.93488,-4.03367,0.00875\H,0,1.
 36351,3.46879,0.16814\H,0,-4.02699,2.21893,-0.09266\H,0,-2.83523,4.383
 64,0.08106\H,0,1.31685,0.47914,1.86562\H,0,3.00679,-1.23797,1.81091\H,
 0,5.96939,-3.03215,0.97745\H,0,4.29634,-2.88014,1.43166\H,0,5.47495,-1
 .72296,2.04398\H,0,6.75956,-2.18123,-0.79487\H,0,6.69756,-0.43358,-0.5
 979\H,0,5.81297,-1.22539,-1.89952\H,0,4.68426,0.56815,-1.69104\H,0,2.9
 501,2.24274,-1.6304\X,0,5.76393,-0.55649,0.82396\X,0,5.53415,-0.90571,
 -1.25576\H,5,roh,43,90.,42,180.,0\X,44,1.5,5,90.,43,0.,0\O,44,0.9474,4
 5,90.,43,180.,0\H,46,0.9474,44,105.5395,45,phi,0\\roh=2.18055015\phi=2
 68.43553458\\Version=EM64L-G09RevA.02\HF=-1416.5954456\RMSD=2.510e-09\
 RMSF=1.153e-03\Dipole=-0.1940346,0.2362383,0.9220762\Quadrupole=20.497
 5058,-11.8570859,-8.6404199,8.7287311,-2.9193192,-11.1884376\PG=C01 [X
 (C16H20N6O1S1)]\\@


 SOME PEOPLE TRY TO PULL THE WOOL OVER YOUR EYES
 USING THE WRONG YARN.
 Job cpu time:  0 days  0 hours 35 minutes  5.3 seconds.
 File lengths (MBytes):  RWF=    105 Int=      0 D2E=      0 Chk=     10 Scr=      1
 Normal termination of Gaussian 09 at Wed Mar 28 15:52:13 2018.
