 Entering Gaussian System, Link 0=/homes/huanglei/prog/g09/g09
 Initial command:
 /homes/huanglei/prog/g09/l1.exe /scratch/1867310.bmgt1.lcrc.anl.gov/0/Gau-19774.inp -scrdir=/scratch/1867310.bmgt1.lcrc.anl.gov/0/
 Entering Link 1 = /homes/huanglei/prog/g09/l1.exe PID=     19776.
  
 Copyright (c) 1988,1990,1992,1993,1995,1998,2003,2009, Gaussian, Inc.
                  All Rights Reserved.
  
 This is part of the Gaussian(R) 09 program.  It is based on
 the Gaussian(R) 03 system (copyright 2003, Gaussian, Inc.),
 the Gaussian(R) 98 system (copyright 1998, Gaussian, Inc.),
 the Gaussian(R) 94 system (copyright 1995, Gaussian, Inc.),
 the Gaussian 92(TM) system (copyright 1992, Gaussian, Inc.),
 the Gaussian 90(TM) system (copyright 1990, Gaussian, Inc.),
 the Gaussian 88(TM) system (copyright 1988, Gaussian, Inc.),
 the Gaussian 86(TM) system (copyright 1986, Carnegie Mellon
 University), and the Gaussian 82(TM) system (copyright 1983,
 Carnegie Mellon University). Gaussian is a federally registered
 trademark of Gaussian, Inc.
  
 This software contains proprietary and confidential information,
 including trade secrets, belonging to Gaussian, Inc.
  
 This software is provided under written license and may be
 used, copied, transmitted, or stored only in accord with that
 written license.
  
 The following legend is applicable only to US Government
 contracts under FAR:
  
                    RESTRICTED RIGHTS LEGEND
  
 Use, reproduction and disclosure by the US Government is
 subject to restrictions as set forth in subparagraphs (a)
 and (c) of the Commercial Computer Software - Restricted
 Rights clause in FAR 52.227-19.
  
 Gaussian, Inc.
 340 Quinnipiac St., Bldg. 40, Wallingford CT 06492
  
  
 ---------------------------------------------------------------
 Warning -- This program may not be used in any manner that
 competes with the business of Gaussian, Inc. or will provide
 assistance to any competitor of Gaussian, Inc.  The licensee
 of this program is prohibited from giving any competitor of
 Gaussian, Inc. access to this program.  By using this program,
 the user acknowledges that Gaussian, Inc. is engaged in the
 business of creating and licensing software in the field of
 computational chemistry and represents and warrants to the
 licensee that it is not a competitor of Gaussian, Inc. and that
 it will not use this program in any manner prohibited above.
 ---------------------------------------------------------------
  

 Cite this work as:
 Gaussian 09, Revision A.02,
 M. J. Frisch, G. W. Trucks, H. B. Schlegel, G. E. Scuseria, 
 M. A. Robb, J. R. Cheeseman, G. Scalmani, V. Barone, B. Mennucci, 
 G. A. Petersson, H. Nakatsuji, M. Caricato, X. Li, H. P. Hratchian, 
 A. F. Izmaylov, J. Bloino, G. Zheng, J. L. Sonnenberg, M. Hada, 
 M. Ehara, K. Toyota, R. Fukuda, J. Hasegawa, M. Ishida, T. Nakajima, 
 Y. Honda, O. Kitao, H. Nakai, T. Vreven, J. A. Montgomery, Jr., 
 J. E. Peralta, F. Ogliaro, M. Bearpark, J. J. Heyd, E. Brothers, 
 K. N. Kudin, V. N. Staroverov, R. Kobayashi, J. Normand, 
 K. Raghavachari, A. Rendell, J. C. Burant, S. S. Iyengar, J. Tomasi, 
 M. Cossi, N. Rega, J. M. Millam, M. Klene, J. E. Knox, J. B. Cross, 
 V. Bakken, C. Adamo, J. Jaramillo, R. Gomperts, R. E. Stratmann, 
 O. Yazyev, A. J. Austin, R. Cammi, C. Pomelli, J. W. Ochterski, 
 R. L. Martin, K. Morokuma, V. G. Zakrzewski, G. A. Voth, 
 P. Salvador, J. J. Dannenberg, S. Dapprich, A. D. Daniels, 
 O. Farkas, J. B. Foresman, J. V. Ortiz, J. Cioslowski, 
 and D. J. Fox, Gaussian, Inc., Wallingford CT, 2009.
 
 ******************************************
 Gaussian 09:  EM64L-G09RevA.02 11-Jun-2009
                28-Mar-2018 
 ******************************************
 %mem=5GB
 %nproc=3
 Will use up to    3 processors via shared memory.
 -------------------------------------------------------
 #HF/6-31G* nosymm SCF=Tight opt=(Z-MATRIX,MaxCycle=200)
 -------------------------------------------------------
 1/6=200,10=7,18=40,38=1/1,3;
 2/12=2,15=1,17=6,18=5,29=3,40=1/2;
 3/5=1,6=6,7=1,11=9,16=1,25=1,30=1,71=1/1,2,3;
 4//1;
 5/5=2,32=2,38=5/2;
 6/7=2,8=2,9=2,10=2,28=1/1;
 7/29=1,30=1/1,2,3,16;
 1/6=200,10=7,18=40/3(2);
 2/15=1,29=3/2;
 99//99;
 2/15=1,29=3/2;
 3/5=1,6=6,7=1,11=9,16=1,25=1,30=1,71=1/1,2,3;
 4/5=5,16=3/1;
 5/5=2,32=2,38=5/2;
 7/30=1/1,2,3,16;
 1/6=200,18=40/3(-5);
 2/15=1,29=3/2;
 6/7=2,8=2,9=2,10=2,19=2,28=1/1;
 99/9=1/99;
 ---------------
 Mol-Water Dimer
 ---------------
 Symbolic Z-matrix:
 Charge =  0 Multiplicity = 1
 N99                  -3.01331  -2.51155  -0.41219 
 N                    -5.22756  -3.08025   0.01776 
 N                    -0.97817   3.56035   0.13129 
 N                     1.03999   2.52808   0.16831 
 N                     4.96579  -1.51547  -0.0087 
 N                    -0.84043   1.19804   0.0407 
 C                    -0.7616   -1.67732  -0.87375 
 C                    -2.17855  -1.41595  -0.45381 
 C                    -4.20008  -2.18855  -0.05691 
 C                    -2.74326  -0.23257  -0.11111 
 C                    -2.16161   1.10984  -0.02969 
 C                    -2.95851   2.25384  -0.0187 
 C                    -2.28736   3.45662   0.06768 
 C                    -0.31018   2.40783   0.10702 
 C                     2.00032   1.48794   0.11857 
 C                     2.04918   0.49089   1.08054 
 C                     3.01909  -0.49053   1.0434 
 C                     4.00146  -0.50964   0.04361 
 C                     5.18471  -2.31613   1.1765 
 C                     6.11511  -1.31633  -0.86371 
 C                     3.95701   0.51458  -0.90628 
 C                     2.96534   1.47999  -0.87153 
 S                    -4.44477  -0.50304   0.26866 
 H                    -0.3237   -0.82986  -1.37539 
 H                    -0.74791  -2.54516  -1.52064 
 H                    -0.14764  -1.89114  -0.00521 
 H                    -5.97008  -2.88098   0.65016 
 H                    -4.93488  -4.03367   0.00875 
 H                     1.36351   3.46879   0.16814 
 H                    -4.02699   2.21893  -0.09266 
 H                    -2.83523   4.38364   0.08106 
 H                     1.31685   0.47914   1.86562 
 H                     3.00679  -1.23797   1.81091 
 H                     5.96939  -3.03215   0.97745 
 H                     4.29634  -2.88014   1.43166 
 H                     5.47495  -1.72296   2.04398 
 H                     6.75956  -2.18123  -0.79487 
 H                     6.69756  -0.43358  -0.5979 
 H                     5.81297  -1.22539  -1.89952 
 H                     4.68426   0.56815  -1.69104 
 H                     2.9501    2.24274  -1.6304 
 X1                   -3.44234  -1.11268  -0.08188 
 X2                   -2.64487  -2.73771   1.02416 
 H1W                  N99  roh      X2    90.      X1    180.     0
 X3                   H1W   1.5      N99   90.      X2    0.       0
 O1W                  H1W   0.9474   X3    90.      X2    180.     0
 H2W                  O1W   0.9474   H1W   105.5395  X3   phi      0
       Variables:
  roh                   1.9704                   
  phi                -139.20438                  
 

 GradGradGradGradGradGradGradGradGradGradGradGradGradGradGradGradGradGrad
 Berny optimization.
 Initialization pass.
                       ----------------------------
                       !    Initial Parameters    !
                       ! (Angstroms and Degrees)  !
 ----------------------                            ----------------------
 !      Name          Value   Derivative information (Atomic Units)     !
 ------------------------------------------------------------------------
 !       roh         1.9704   estimate D2E/DX2                          !
 !       phi      -139.2044   estimate D2E/DX2                          !
 ------------------------------------------------------------------------
 Trust Radius=3.00D-01 FncErr=1.00D-07 GrdErr=1.00D-07
 Number of steps in this run= 100 maximum allowed number of steps= 100.
 GradGradGradGradGradGradGradGradGradGradGradGradGradGradGradGradGradGrad

 ---------------------------------------------------------------------------------------------------
                            Z-MATRIX (ANGSTROMS AND DEGREES)
   CD    Cent   Atom    N1       Length/X        N2       Alpha/Y        N3        Beta/Z          J
 ---------------------------------------------------------------------------------------------------
      1      1  N        0  -3.013310         -2.511550         -0.412190
      2      2  N        0  -5.227560         -3.080250          0.017760
      3      3  N        0  -0.978170          3.560350          0.131290
      4      4  N        0   1.039990          2.528080          0.168310
      5      5  N        0   4.965790         -1.515470         -0.008700
      6      6  N        0  -0.840430          1.198040          0.040700
      7      7  C        0  -0.761600         -1.677320         -0.873750
      8      8  C        0  -2.178550         -1.415950         -0.453810
      9      9  C        0  -4.200080         -2.188550         -0.056910
     10     10  C        0  -2.743260         -0.232570         -0.111110
     11     11  C        0  -2.161610          1.109840         -0.029690
     12     12  C        0  -2.958510          2.253840         -0.018700
     13     13  C        0  -2.287360          3.456620          0.067680
     14     14  C        0  -0.310180          2.407830          0.107020
     15     15  C        0   2.000320          1.487940          0.118570
     16     16  C        0   2.049180          0.490890          1.080540
     17     17  C        0   3.019090         -0.490530          1.043400
     18     18  C        0   4.001460         -0.509640          0.043610
     19     19  C        0   5.184710         -2.316130          1.176500
     20     20  C        0   6.115110         -1.316330         -0.863710
     21     21  C        0   3.957010          0.514580         -0.906280
     22     22  C        0   2.965340          1.479990         -0.871530
     23     23  S        0  -4.444770         -0.503040          0.268660
     24     24  H        0  -0.323700         -0.829860         -1.375390
     25     25  H        0  -0.747910         -2.545160         -1.520640
     26     26  H        0  -0.147640         -1.891140         -0.005210
     27     27  H        0  -5.970080         -2.880980          0.650160
     28     28  H        0  -4.934880         -4.033670          0.008750
     29     29  H        0   1.363510          3.468790          0.168140
     30     30  H        0  -4.026990          2.218930         -0.092660
     31     31  H        0  -2.835230          4.383640          0.081060
     32     32  H        0   1.316850          0.479140          1.865620
     33     33  H        0   3.006790         -1.237970          1.810910
     34     34  H        0   5.969390         -3.032150          0.977450
     35     35  H        0   4.296340         -2.880140          1.431660
     36     36  H        0   5.474950         -1.722960          2.043980
     37     37  H        0   6.759560         -2.181230         -0.794870
     38     38  H        0   6.697560         -0.433580         -0.597900
     39     39  H        0   5.812970         -1.225390         -1.899520
     40     40  H        0   4.684260          0.568150         -1.691040
     41     41  H        0   2.950100          2.242740         -1.630400
     42         X        0  -3.442340         -1.112680         -0.081880
     43         X        0  -2.644870         -2.737710          1.024160
     44     42  H        1   1.970400(    43)     43   90.000(    88)     42  180.000(   132)      0
     45         X       44   1.500000(    44)      1   90.000(    89)     43    0.000(   133)      0
     46     43  O       44   0.947400(    45)     45   90.000(    90)     43  180.000(   134)      0
     47     44  H       46   0.947400(    46)     44  105.540(    91)     45 -139.204(   135)      0
 ---------------------------------------------------------------------------------------------------
                         Z-Matrix orientation:                         
 ---------------------------------------------------------------------
 Center     Atomic      Atomic             Coordinates (Angstroms)
 Number     Number       Type             X           Y           Z
 ---------------------------------------------------------------------
      1          7           0       -3.013310   -2.511550   -0.412190
      2          7           0       -5.227560   -3.080250    0.017760
      3          7           0       -0.978170    3.560350    0.131290
      4          7           0        1.039990    2.528080    0.168310
      5          7           0        4.965790   -1.515470   -0.008700
      6          7           0       -0.840430    1.198040    0.040700
      7          6           0       -0.761600   -1.677320   -0.873750
      8          6           0       -2.178550   -1.415950   -0.453810
      9          6           0       -4.200080   -2.188550   -0.056910
     10          6           0       -2.743260   -0.232570   -0.111110
     11          6           0       -2.161610    1.109840   -0.029690
     12          6           0       -2.958510    2.253840   -0.018700
     13          6           0       -2.287360    3.456620    0.067680
     14          6           0       -0.310180    2.407830    0.107020
     15          6           0        2.000320    1.487940    0.118570
     16          6           0        2.049180    0.490890    1.080540
     17          6           0        3.019090   -0.490530    1.043400
     18          6           0        4.001460   -0.509640    0.043610
     19          6           0        5.184710   -2.316130    1.176500
     20          6           0        6.115110   -1.316330   -0.863710
     21          6           0        3.957010    0.514580   -0.906280
     22          6           0        2.965340    1.479990   -0.871530
     23         16           0       -4.444770   -0.503040    0.268660
     24          1           0       -0.323700   -0.829860   -1.375390
     25          1           0       -0.747910   -2.545160   -1.520640
     26          1           0       -0.147640   -1.891140   -0.005210
     27          1           0       -5.970080   -2.880980    0.650160
     28          1           0       -4.934880   -4.033670    0.008750
     29          1           0        1.363510    3.468790    0.168140
     30          1           0       -4.026990    2.218930   -0.092660
     31          1           0       -2.835230    4.383640    0.081060
     32          1           0        1.316850    0.479140    1.865620
     33          1           0        3.006790   -1.237970    1.810910
     34          1           0        5.969390   -3.032150    0.977450
     35          1           0        4.296340   -2.880140    1.431660
     36          1           0        5.474950   -1.722960    2.043980
     37          1           0        6.759560   -2.181230   -0.794870
     38          1           0        6.697560   -0.433580   -0.597900
     39          1           0        5.812970   -1.225390   -1.899520
     40          1           0        4.684260    0.568150   -1.691040
     41          1           0        2.950100    2.242740   -1.630400
     42         -1           0       -3.442340   -1.112680   -0.081880
     43         -1           0       -2.644870   -2.737710    1.024160
     44          1           0       -2.449737   -4.349102   -0.846084
     45         -1           0       -2.081297   -4.575262    0.590267
     46          8           0       -2.178762   -5.232627   -1.054707
     47          1           0       -1.723536   -5.169548   -1.883174
 ---------------------------------------------------------------------
                    Distance matrix (angstroms):
                    1          2          3          4          5
     1  N    0.000000
     2  N    2.326194   0.000000
     3  N    6.426907   7.884654   0.000000
     4  N    6.493388   8.411790   2.267140   0.000000
     5  N    8.051150  10.312789   7.817558   5.638576   0.000000
     6  N    4.322913   6.127903   2.368056   2.306788   6.409194
     7  C    2.445235   4.765270   5.337621   4.692228   5.794610
     8  C    1.378004   3.505529   5.152360   5.128490   7.158884
     9  C    1.280225   1.362505   6.592873   7.053769   9.190676
    10  C    2.314590   3.781221   4.190530   4.691721   7.815739
    11  C    3.739808   5.192221   2.726068   3.507257   7.595559
    12  C    4.781922   5.796761   2.377228   4.012254   8.775097
    13  C    6.031279   7.167841   1.314833   3.455947   8.794072
    14  C    5.637091   7.369370   1.332330   1.356899   6.575829
    15  C    6.435380   8.551068   3.628560   1.416545   4.222639
    16  C    6.072207   8.175175   4.414466   2.449647   3.703854
    17  C    6.526340   8.704357   5.763650   3.714112   2.438659
    18  C    7.309063   9.580371   6.431891   4.244243   1.394404
    19  C    8.352823  10.504376   8.579427   6.454574   1.446956
    20  C    9.217401  11.512800   8.665256   6.449914   1.446249
    21  C    7.614916   9.906209   5.891457   3.703773   2.438112
    22  C    7.203308   9.418611   4.569991   2.426259   3.703924
    23  S    2.558661   2.705129   5.342970   6.267404   9.468927
    24  H    3.315092   5.572519   4.687468   3.939343   5.506052
    25  H    2.522266   4.766577   6.329229   5.637987   5.999383
    26  H    2.960170   5.217288   5.516082   4.579310   5.127212
    27  H    3.163472   0.995477   8.165729   8.867423  11.040469
    28  H    2.487262   0.997373   8.563861   8.875871  10.215914
    29  H    7.433559   9.292725   2.343759   0.994787   6.152279
    30  H    4.848411   5.434599   3.338393   5.083106   9.737704
    31  H    6.915103   7.838170   2.031994   4.297446   9.780770
    32  H    5.734364   7.675490   4.215314   2.675008   4.561393
    33  H    6.542613   8.626349   6.459482   4.555170   2.688060
    34  H    9.104451  11.238105   9.614865   7.474614   2.068822
    35  H    7.547624   9.630360   8.425635   6.438067   2.094069
    36  H    8.871595  10.976863   8.556548   6.423266   2.125039
    37  H    9.785936  12.048222   9.679668   7.471198   2.068553
    38  H    9.932444  12.230797   8.683319   6.431688   2.125246
    39  H    9.042653  11.358247   8.552607   6.414499   2.092143
    40  H    8.388837  10.699299   6.658623   4.536432   2.692768
    41  H    7.723313   9.895695   4.502328   2.639185   4.562572
    42  X    1.500003   2.658622   5.287228   5.780053   8.418090
    43  X    1.499999   2.792931   6.575763   6.483766   7.777070
    44  H    1.970400   3.173722   8.104332   7.778356   7.982526
    45  X    2.476384   3.530127   8.222879   7.770325   7.706006
    46  O    2.917800   3.883050   8.953460   8.490271   8.121331
    47  H    3.300343   4.500767   8.990259   8.432030   7.849396
                    6          7          8          9         10
     6  N    0.000000
     7  C    3.018299   0.000000
     8  C    2.977927   1.500804   0.000000
     9  C    4.771349   3.570956   2.200233   0.000000
    10  C    2.385467   2.568248   1.355260   2.439492   0.000000
    11  C    1.325990   3.231211   2.561207   3.877561   1.465268
    12  C    2.367384   4.583835   3.776906   4.612785   2.497420
    13  C    2.682446   5.437975   4.901605   5.961708   3.721550
    14  C    1.322556   4.225416   4.292625   6.023695   3.597106
    15  C    2.856565   4.316454   5.120854   7.210571   5.051184
    16  C    3.151377   4.052267   4.885076   6.893942   4.991083
    17  C    4.330424   4.401994   5.487577   7.497358   5.882526
    18  C    5.134207   4.989165   6.265888   8.372222   6.752181
    19  C    7.066947   6.322199   7.595119   9.466354   8.297703
    20  C    7.451144   6.886186   8.304381  10.383392   8.956096
    21  C    4.937542   5.202957   6.448005   8.635187   6.788531
    22  C    3.923716   4.884536   5.917817   8.091047   6.008262
    23  S    3.992105   4.031101   2.547768   1.734016   1.764232
    24  H    2.526796   1.077770   2.152505   4.314018   2.794536
    25  H    4.056832   1.082497   2.111865   3.766584   3.363966
    26  H    3.166244   1.084909   2.133458   4.063668   3.082095
    27  H    6.582033   5.558720   4.211978   2.027882   4.243345
    28  H    6.643518   4.873136   3.829331   1.987136   4.389297
    29  H    3.167001   5.664281   6.065781   7.937864   5.535667
    30  H    3.348756   5.143310   4.093838   4.411022   2.767337
    31  H    3.758843   6.476638   5.861106   6.713831   4.621124
    32  H    2.915649   4.058870   4.603145   6.422555   4.571486
    33  H    4.885580   4.647708   5.661129   7.505420   6.145573
    34  H    8.071286   7.111170   8.429089  10.256690   9.215904
    35  H    6.704680   5.687218   6.900946   8.653513   7.677613
    36  H    7.240815   6.885477   8.056629   9.911444   8.625813
    37  H    8.359276   7.538435   8.977293  10.984459   9.724628
    38  H    7.738946   7.567169   8.931469  11.051296   9.455498
    39  H    7.342016   6.669439   8.123471  10.226635   8.797339
    40  H    5.823906   5.947057   7.250210   9.444643   7.635796
    41  H    4.272247   5.451248   6.408855   8.557878   6.391381
    42  X    3.482009   2.851709   1.351839   1.316165   1.124349
    43  X    4.439969   2.876316   2.036885   1.972046   2.752135
    44  H    5.843547   3.160537   2.971667   2.890412   4.191918
    45  X    5.930666   3.504713   3.328785   3.256451   4.448494
    46  O    6.659168   3.831619   3.863690   3.787839   5.119531
    47  H    6.710241   3.760307   4.042229   4.284257   5.343575
                   11         12         13         14         15
    11  C    0.000000
    12  C    1.394240   0.000000
    13  C    2.352163   1.380067   0.000000
    14  C    2.265229   2.655781   2.238470   0.000000
    15  C    4.181698   5.019506   4.718314   2.486914   0.000000
    16  C    4.398461   5.421557   5.350422   3.192018   1.386320
    17  C    5.527419   6.662682   6.685090   4.512354   2.409885
    18  C    6.372717   7.488784   7.435123   5.206332   2.828517
    19  C    8.195156   9.414094   9.507153   7.324848   5.072524
    20  C    8.665217   9.787274   9.708246   7.489729   5.075461
    21  C    6.209690   7.185906   6.971109   4.777037   2.413790
    22  C    5.208774   6.034746   5.690346   3.542242   1.382615
    23  S    2.811266   3.145144   4.513726   5.059064   6.747275
    24  H    2.991865   4.276919   4.930753   3.560949   3.606270
    25  H    4.192911   5.492993   6.396408   5.231921   5.148366
    26  H    3.614216   5.008196   5.760404   4.303505   4.005900
    27  H    5.558173   5.990267   7.353019   7.765371   9.104797
    28  H    5.843646   6.590870   7.944638   7.930349   8.865508
    29  H    4.246205   4.493425   3.652272   1.982577   2.081286
    30  H    2.171103   1.071605   2.141004   3.726960   6.075149
    31  H    3.344218   2.135696   1.076897   3.206303   5.636402
    32  H    4.011193   4.997892   5.008823   3.075670   2.130022
    33  H    5.967611   7.150176   7.287390   5.215112   3.362675
    34  H    9.180609  10.423119  10.540671   8.353684   6.076381
    35  H    7.730498   9.005229   9.239052   7.137039   5.106470
    36  H    8.404874   9.549494   9.538725   7.367698   5.107850
    37  H    9.539597  10.710423  10.694677   8.476680   6.078449
    38  H    9.010544  10.039790   9.813534   7.594665   5.125391
    39  H    8.517247   9.621922   9.560672   7.397260   5.096189
    40  H    7.065370   8.003137   7.748538   5.617995   3.365150
    41  H    5.474972   6.124490   5.638082   3.698014   2.128544
    42  X    2.565656   3.401697   4.715384   4.715941   6.035392
    43  X    4.018430   5.108963   6.277929   5.724378   6.344604
    44  H    5.527166   6.673999   7.860702   7.151381   7.403015
    45  X    5.719369   6.912089   8.051502   7.220385   7.324242
    46  O    6.424783   7.597927   8.762109   7.950962   8.000458
    47  H    6.561861   7.752942   8.861969   7.960848   7.886458
                   16         17         18         19         20
    16  C    0.000000
    17  C    1.380322   0.000000
    18  C    2.426454   1.401783   0.000000
    19  C    4.209527   2.835567   2.438632   0.000000
    20  C    4.855712   3.728854   2.437518   2.455138   0.000000
    21  C    2.754602   2.385622   1.397603   3.722652   2.830449
    22  C    2.372392   2.748235   2.422737   4.850831   4.211949
    23  S    6.619549   7.503971   8.449230   9.840648  10.651515
    24  H    3.661493   4.140040   4.563235   6.250098   6.477403
    25  H    4.879288   4.998609   5.398772   6.520966   7.003044
    26  H    3.417446   3.617937   4.373323   5.478231   6.347398
    27  H    8.709952   9.309891  10.267559  11.181477  12.279729
    28  H    8.390320   8.768693   9.606153  10.330522  11.412598
    29  H    3.189123   4.379868   4.775164   7.005973   6.822008
    30  H    6.425135   7.634072   8.480547  10.345673  10.768230
    31  H    6.325340   7.678326   8.407492  10.507442  10.653208
    32  H    1.073683   2.124600   3.391834   4.821697   5.804847
    33  H    2.106992   1.071396   2.154804   2.511621   4.101388
    34  H    5.271668   3.894670   3.332846   1.080754   2.520941
    35  H    4.066553   2.737216   2.762772   1.082781   3.319962
    36  H    4.191092   2.924259   2.764923   1.090235   3.004965
    37  H    5.731062   4.497646   3.332323   2.526787   1.080790
    38  H    5.027847   4.028430   2.772413   2.996866   1.090482
    39  H    5.098283   4.123901   2.751294   3.323601   1.082802
    40  H    3.825084   3.372055   2.153336   4.097842   2.506606
    41  H    3.351094   3.824229   3.388696   5.801333   4.824115
    42  X    5.837761   6.588126   7.469241   8.801012   9.591537
    43  X    5.697468   6.093491   7.078098   7.842401   9.073126
    44  H    6.883143   6.954624   7.559826   8.155281   9.085958
    45  X    6.554930   6.550139   7.336760   7.631658   8.939562
    46  O    7.429227   7.342153   7.855447   8.228303   9.173995
    47  H    7.420077   7.276712   7.629077   8.076352   8.793802
                   21         22         23         24         25
    21  C    0.000000
    22  C    1.384425   0.000000
    23  S    8.544351   7.755138   0.000000
    24  H    4.511326   4.050564   4.448925   0.000000
    25  H    5.645859   5.514653   4.586788   1.772937   0.000000
    26  H    4.842269   4.669654   4.524064   1.742041   1.756301
    27  H   10.606576  10.058595   2.850739   6.339681   5.665351
    28  H   10.029435   9.674131   3.573949   5.783012   4.699512
    29  H    4.075289   2.757190   7.037162   4.869040   6.593760
    30  H    8.204331   7.074274   2.777447   4.965367   5.957184
    31  H    7.879022   6.556312   5.148345   5.967379   7.411519
    32  H    3.828202   3.348315   6.058979   3.861221   4.987623
    33  H    3.370085   3.818967   7.644894   4.627227   5.187075
    34  H    4.491927   5.727342  10.740275   7.070284   7.183295
    35  H    4.135847   5.107541   9.132917   5.781691   5.854293
    36  H    4.001845   5.005720  10.150902   6.790733   7.218484
    37  H    3.890256   5.273188  11.379122   7.234347   7.551244
    38  H    2.916285   4.203105  11.176192   7.075282   7.793923
    39  H    2.731045   4.060153  10.509235   6.171700   6.703021
    40  H    1.071266   2.111335   9.398248   5.209005   6.263402
    41  H    2.127147   1.076059   8.113559   4.497073   6.050728
    42  X    7.620892   6.957287   1.224502   3.388078   3.373719
    43  X    7.608470   7.270288   2.967182   3.845200   3.179865
    44  H    8.043969   7.956257   4.473813   4.145511   2.570107
    45  X    8.037866   8.016949   4.719368   4.580501   3.217944
    46  O    8.408336   8.458993   5.408797   4.788366   3.080083
    47  H    8.095198   8.199106   5.814791   4.588058   2.823241
                   26         27         28         29         30
    26  H    0.000000
    27  H    5.942230   0.000000
    28  H    5.244835   1.676824   0.000000
    29  H    5.571577   9.712542   9.797042   0.000000
    30  H    5.652405   5.507855   6.318984   5.539644   0.000000
    31  H    6.826672   7.932582   8.675533   4.298133   2.477184
    32  H    3.356034   8.115855   7.930797   3.438259   5.951332
    33  H    3.698020   9.199512   8.610101   5.249062   8.065221
    34  H    6.299649  11.944912  10.992931   8.008204  11.342248
    35  H    4.774063  10.296122   9.411202   7.106820   9.879367
    36  H    5.986734  11.587599  10.855694   6.883094  10.506693
    37  H    6.958242  12.830491  11.867488   7.871942  11.670654
    38  H    7.023712  12.962119  12.191896   6.653375  11.059252
    39  H    6.289714  12.168899  11.271389   6.790305  10.580780
    40  H    5.677798  11.440834  10.797865   4.785148   9.009205
    41  H    5.415367  10.536749  10.210438   2.693550   7.144578
    42  X    3.386285   3.170526   3.281474   6.644439   3.382537
    43  X    2.830626   3.349242   2.820411   7.437777   5.265532
    44  H    3.471066   4.097187   2.646918   8.757222   6.796648
    45  X    3.361270   4.242265   2.962165   8.760803   7.100222
    46  O    4.048757   4.776076   3.188201   9.474054   7.737388
    47  H    4.093672   5.448712   3.896450   9.399927   7.943642
                   31         32         33         34         35
    31  H    0.000000
    32  H    5.972398   0.000000
    33  H    8.289999   2.409846   0.000000
    34  H   11.546376   5.896112   3.562406   0.000000
    35  H   10.268686   4.511147   2.122143   1.740261   0.000000
    36  H   10.497748   4.708593   2.526134   1.759527   1.761568
    37  H   11.658678   6.616560   4.665095   2.118856   3.393135
    38  H   10.702368   5.987823   4.480088   3.124824   3.983796
    39  H   10.496441   6.107110   4.652107   3.400854   4.016855
    40  H    8.616324   4.898694   4.282479   4.662034   4.668237
    41  H    6.401765   4.242634   4.895015   6.613733   6.118208
    42  X    5.532148   5.382986   6.722323   9.663706   8.080958
    43  X    7.186049   5.172176   5.899954   8.619417   6.954620
    44  H    8.790278   6.697196   6.820004   8.714433   7.270180
    45  X    9.004978   6.222613   6.206136   8.206380   6.652491
    46  O    9.705334   7.305607   7.145558   8.681253   7.324149
    47  H    9.816184   7.430012   7.174924   8.481317   7.243508
                   36         37         38         39         40
    36  H    0.000000
    37  H    3.149493   0.000000
    38  H    3.183835   1.759807   0.000000
    39  H    3.989113   1.740665   1.761726   0.000000
    40  H    4.452499   3.559365   2.500359   2.129375   0.000000
    41  H    5.966801   5.897593   4.719343   4.505150   2.411481
    42  X    9.187480  10.282457  10.175708   9.432777   8.453178
    43  X    8.246286   9.594886   9.758130   9.075796   8.486293
    44  H    8.834577   9.461155   9.953188   8.896046   8.705586
    45  X    8.206447   9.263409   9.779243   8.929733   8.799535
    46  O    8.972120   9.448394  10.100922   8.979947   9.008607
    47  H    8.894925   9.059656   9.746598   8.506208   8.603368
                   41         42         43         44         45
    41  H    0.000000
    42  X    7.383769   0.000000
    43  X    7.947028   2.121322   0.000000
    44  H    8.557206   3.470403   2.476383   0.000000
    45  X    8.759650   3.780700   1.970400   1.500000   0.000000
    46  O    9.083929   4.417803   3.280786   0.947400   1.774138
    47  H    8.766343   4.759950   3.900677   1.508660   2.568867
                   46         47
    46  O    0.000000
    47  H    0.947400   0.000000
 Symmetry turned off by external request.
 Stoichiometry    C16H20N6OS
 Framework group  C1[X(C16H20N6OS)]
 Deg. of freedom   126
 Full point group                 C1      NOp   1
 Rotational constants (GHZ):      0.2820781      0.1219275      0.0890839
 Standard basis: 6-31G(d) (6D, 7F)
 Integral buffers will be    131072 words long.
 Raffenetti 1 integral format.
 Two-electron integral symmetry is turned off.
   404 basis functions,   776 primitive gaussians,   404 cartesian basis functions
    91 alpha electrons       91 beta electrons
       nuclear repulsion energy      2119.8797393714 Hartrees.
 NAtoms=   44 NActive=   44 NUniq=   44 SFac= 7.50D-01 NAtFMM=   80 NAOKFM=F Big=F
 One-electron integrals computed using PRISM.
 NBasis=   404 RedAO= T  NBF=   404
 NBsUse=   404 1.00D-06 NBFU=   404
 Harris functional with IExCor=  205 diagonalized for initial guess.
 ExpMin= 1.17D-01 ExpMax= 2.19D+04 ExpMxC= 3.30D+03 IAcc=1 IRadAn=         1 AccDes= 0.00D+00
 HarFok:  IExCor=  205 AccDes= 0.00D+00 IRadAn=         1 IDoV= 1
 ScaDFX=  1.000000  1.000000  1.000000  1.000000
 FoFCou: FMM=F IPFlag=           0 FMFlag=      100000 FMFlg1=           0
         NFxFlg=           0 DoJE=T BraDBF=F KetDBF=T FulRan=T
         Omega=  0.000000  0.000000  1.000000  0.000000  0.000000 ICntrl=     500 IOpCl=  0
         NMat0=    1 NMatS0=    1 NMatT0=    0 NMatD0=    1 NMtDS0=    0 NMtDT0=    0
         I1Cent=           4 NGrid=           0.
 Symmetry not used in FoFCou.
 Requested convergence on RMS density matrix=1.00D-08 within 128 cycles.
 Requested convergence on MAX density matrix=1.00D-06.
 Requested convergence on             energy=1.00D-06.
 No special actions if energy rises.
 Integral accuracy reduced to 1.0D-05 until final iterations.
 Initial convergence to 1.0D-05 achieved.  Increase integral accuracy.
 SCF Done:  E(RHF) =  -1416.59803150     A.U. after   16 cycles
             Convg  =    0.5909D-08             -V/T =  2.0010

 **********************************************************************

            Population analysis using the SCF density.

 **********************************************************************

 Alpha  occ. eigenvalues --  -91.98311 -20.51677 -15.60162 -15.57706 -15.56962
 Alpha  occ. eigenvalues --  -15.56482 -15.54957 -15.54887 -11.36457 -11.34487
 Alpha  occ. eigenvalues --  -11.30895 -11.28997 -11.28748 -11.27265 -11.26085
 Alpha  occ. eigenvalues --  -11.25661 -11.25254 -11.25201 -11.22964 -11.22741
 Alpha  occ. eigenvalues --  -11.22195 -11.21949 -11.21919 -11.21409  -8.99444
 Alpha  occ. eigenvalues --   -6.67712  -6.67596  -6.67415  -1.33663  -1.32573
 Alpha  occ. eigenvalues --   -1.30940  -1.25608  -1.23454  -1.22462  -1.19716
 Alpha  occ. eigenvalues --   -1.13149  -1.08939  -1.04406  -1.03592  -1.01635
 Alpha  occ. eigenvalues --   -0.99843  -0.97012  -0.93805  -0.90265  -0.88724
 Alpha  occ. eigenvalues --   -0.86171  -0.82988  -0.80849  -0.78688  -0.77752
 Alpha  occ. eigenvalues --   -0.73585  -0.73096  -0.70738  -0.69711  -0.68185
 Alpha  occ. eigenvalues --   -0.67177  -0.65825  -0.65151  -0.64064  -0.63880
 Alpha  occ. eigenvalues --   -0.62148  -0.61476  -0.60272  -0.59650  -0.58771
 Alpha  occ. eigenvalues --   -0.58589  -0.57578  -0.56855  -0.55977  -0.55812
 Alpha  occ. eigenvalues --   -0.55594  -0.54472  -0.53745  -0.53090  -0.52755
 Alpha  occ. eigenvalues --   -0.50832  -0.49417  -0.48820  -0.47846  -0.47013
 Alpha  occ. eigenvalues --   -0.46221  -0.45000  -0.43880  -0.42626  -0.40485
 Alpha  occ. eigenvalues --   -0.39433  -0.39199  -0.33485  -0.33115  -0.30030
 Alpha  occ. eigenvalues --   -0.27085
 Alpha virt. eigenvalues --    0.08817   0.13966   0.14758   0.15016   0.16575
 Alpha virt. eigenvalues --    0.18811   0.21674   0.22999   0.23882   0.24340
 Alpha virt. eigenvalues --    0.25962   0.26086   0.26541   0.27225   0.27609
 Alpha virt. eigenvalues --    0.27908   0.29178   0.30174   0.31251   0.32261
 Alpha virt. eigenvalues --    0.33023   0.33211   0.33579   0.34359   0.34810
 Alpha virt. eigenvalues --    0.35296   0.36023   0.36381   0.37873   0.38677
 Alpha virt. eigenvalues --    0.39344   0.40297   0.41183   0.43166   0.44044
 Alpha virt. eigenvalues --    0.44685   0.46102   0.46344   0.47804   0.48723
 Alpha virt. eigenvalues --    0.50970   0.52025   0.52408   0.53194   0.54388
 Alpha virt. eigenvalues --    0.55841   0.57147   0.57285   0.58618   0.60327
 Alpha virt. eigenvalues --    0.61536   0.63801   0.66805   0.67383   0.68517
 Alpha virt. eigenvalues --    0.69888   0.70326   0.72309   0.73616   0.74276
 Alpha virt. eigenvalues --    0.74558   0.75484   0.76514   0.76808   0.77491
 Alpha virt. eigenvalues --    0.78235   0.78977   0.79121   0.79690   0.81405
 Alpha virt. eigenvalues --    0.81893   0.82395   0.83073   0.83885   0.84425
 Alpha virt. eigenvalues --    0.84509   0.85102   0.86273   0.86910   0.88428
 Alpha virt. eigenvalues --    0.89199   0.90470   0.91476   0.91987   0.93477
 Alpha virt. eigenvalues --    0.93851   0.94096   0.94700   0.95932   0.96921
 Alpha virt. eigenvalues --    0.97539   0.98211   0.98895   0.99010   1.00427
 Alpha virt. eigenvalues --    1.02400   1.03646   1.04210   1.04900   1.05699
 Alpha virt. eigenvalues --    1.06842   1.07619   1.08456   1.09415   1.10299
 Alpha virt. eigenvalues --    1.11646   1.11913   1.12457   1.12510   1.12658
 Alpha virt. eigenvalues --    1.12781   1.13225   1.14262   1.14682   1.15049
 Alpha virt. eigenvalues --    1.15438   1.16123   1.16785   1.17246   1.17976
 Alpha virt. eigenvalues --    1.18352   1.19127   1.19655   1.20413   1.21081
 Alpha virt. eigenvalues --    1.21599   1.22445   1.22788   1.23205   1.24854
 Alpha virt. eigenvalues --    1.25587   1.26004   1.26464   1.27109   1.27910
 Alpha virt. eigenvalues --    1.28613   1.28851   1.29824   1.30194   1.31276
 Alpha virt. eigenvalues --    1.31704   1.33068   1.33366   1.34833   1.37205
 Alpha virt. eigenvalues --    1.38209   1.38933   1.41163   1.43219   1.43734
 Alpha virt. eigenvalues --    1.44242   1.45241   1.46809   1.47345   1.48300
 Alpha virt. eigenvalues --    1.49264   1.50814   1.52131   1.53807   1.56611
 Alpha virt. eigenvalues --    1.59428   1.61327   1.62101   1.63464   1.64451
 Alpha virt. eigenvalues --    1.64971   1.65932   1.67125   1.70444   1.73564
 Alpha virt. eigenvalues --    1.74028   1.74966   1.75301   1.76410   1.77214
 Alpha virt. eigenvalues --    1.77827   1.78871   1.79547   1.80700   1.81272
 Alpha virt. eigenvalues --    1.84263   1.85248   1.85549   1.86758   1.89663
 Alpha virt. eigenvalues --    1.90324   1.91156   1.92543   2.00294   2.01540
 Alpha virt. eigenvalues --    2.03693   2.05868   2.06217   2.07853   2.09942
 Alpha virt. eigenvalues --    2.10294   2.10782   2.12168   2.13236   2.14258
 Alpha virt. eigenvalues --    2.15078   2.15496   2.18013   2.18948   2.21849
 Alpha virt. eigenvalues --    2.22008   2.22784   2.23424   2.24557   2.26166
 Alpha virt. eigenvalues --    2.26959   2.27980   2.29475   2.30575   2.32801
 Alpha virt. eigenvalues --    2.34814   2.35367   2.37241   2.38976   2.40199
 Alpha virt. eigenvalues --    2.40878   2.42615   2.45878   2.46990   2.47885
 Alpha virt. eigenvalues --    2.48309   2.48722   2.49773   2.50495   2.52607
 Alpha virt. eigenvalues --    2.54253   2.55131   2.56617   2.57066   2.58265
 Alpha virt. eigenvalues --    2.58774   2.59546   2.61325   2.63227   2.64259
 Alpha virt. eigenvalues --    2.64675   2.65607   2.66987   2.68086   2.69698
 Alpha virt. eigenvalues --    2.71359   2.73342   2.75214   2.77626   2.78263
 Alpha virt. eigenvalues --    2.78932   2.80430   2.81539   2.83546   2.85754
 Alpha virt. eigenvalues --    2.86915   2.87742   2.92851   2.93200   2.94400
 Alpha virt. eigenvalues --    2.95686   2.96020   2.98024   2.98960   3.00814
 Alpha virt. eigenvalues --    3.01269   3.01945   3.04400   3.06701   3.07362
 Alpha virt. eigenvalues --    3.09960   3.11350   3.13336   3.15829   3.15946
 Alpha virt. eigenvalues --    3.21109   3.23366   3.25523   3.27271   3.29389
 Alpha virt. eigenvalues --    3.34474   3.39587   3.40866   3.51441   3.58731
 Alpha virt. eigenvalues --    3.60481   3.72433   3.86334   3.87051   4.20670
 Alpha virt. eigenvalues --    4.27547   4.36337   4.47012   4.50917   4.51958
 Alpha virt. eigenvalues --    4.53298   4.55398   4.56684   4.57918   4.58977
 Alpha virt. eigenvalues --    4.64955   4.68371   4.70062   4.72253   4.76520
 Alpha virt. eigenvalues --    4.77605   4.79908   4.81083   4.82989   4.93410
 Alpha virt. eigenvalues --    4.95215   5.08255   5.22139
          Condensed to atoms (all electrons):
              1          2          3          4          5          6
     1  N    7.000809  -0.075900   0.000000   0.000000   0.000000   0.000013
     2  N   -0.075900   7.054170   0.000000   0.000000   0.000000   0.000000
     3  N    0.000000   0.000000   6.942940  -0.109508   0.000000  -0.102398
     4  N    0.000000   0.000000  -0.109508   7.378725   0.000000  -0.102844
     5  N    0.000000   0.000000   0.000000   0.000000   7.246398   0.000000
     6  N    0.000013   0.000000  -0.102398  -0.102844   0.000000   7.062426
     7  C   -0.062766  -0.000067  -0.000003   0.000026   0.000000  -0.012501
     8  C    0.413954   0.003296   0.000023  -0.000007   0.000000  -0.002268
     9  C    0.510262   0.318121   0.000000   0.000000   0.000000  -0.000014
    10  C   -0.080799   0.002436  -0.000094  -0.000136   0.000000  -0.086252
    11  C    0.004537  -0.000035  -0.026859   0.002133   0.000000   0.506708
    12  C   -0.000121   0.000000  -0.051870   0.000445   0.000000  -0.072176
    13  C    0.000001   0.000000   0.489104   0.002038   0.000000  -0.013878
    14  C   -0.000002   0.000000   0.514488   0.321966   0.000000   0.496746
    15  C    0.000000   0.000000   0.002634   0.196286   0.000140   0.001889
    16  C    0.000000   0.000000  -0.000010  -0.049338   0.003551  -0.002797
    17  C    0.000000   0.000000  -0.000001   0.004690  -0.060177  -0.000304
    18  C    0.000000   0.000000   0.000000   0.000190   0.291370   0.000020
    19  C    0.000000   0.000000   0.000000   0.000000   0.264872   0.000000
    20  C    0.000000   0.000000   0.000000   0.000000   0.266692   0.000000
    21  C    0.000000   0.000000   0.000000   0.004302  -0.061041  -0.000039
    22  C    0.000000   0.000000  -0.000132  -0.058866   0.003700  -0.000235
    23  S   -0.074251  -0.065180  -0.000001   0.000002   0.000000   0.002245
    24  H    0.002959   0.000001   0.000012  -0.000163   0.000000   0.002931
    25  H   -0.003815  -0.000008   0.000000  -0.000001   0.000000   0.000569
    26  H    0.000626   0.000000   0.000000   0.000002  -0.000004  -0.000014
    27  H    0.002400   0.331045   0.000000   0.000000   0.000000   0.000000
    28  H    0.002558   0.321161   0.000000   0.000000   0.000000   0.000000
    29  H    0.000000   0.000000   0.006651   0.326268   0.000000   0.003787
    30  H   -0.000004   0.000000   0.002694   0.000015   0.000000   0.002484
    31  H    0.000000   0.000000  -0.042527  -0.000048   0.000000  -0.000568
    32  H    0.000000   0.000000  -0.000015  -0.003392  -0.000070   0.001756
    33  H    0.000000   0.000000   0.000000  -0.000103  -0.003992  -0.000007
    34  H    0.000000   0.000000   0.000000   0.000000  -0.036738   0.000000
    35  H    0.000000   0.000000   0.000000   0.000000  -0.044436   0.000000
    36  H    0.000000   0.000000   0.000000   0.000000  -0.057628   0.000000
    37  H    0.000000   0.000000   0.000000   0.000000  -0.036831   0.000000
    38  H    0.000000   0.000000   0.000000   0.000000  -0.057995   0.000000
    39  H    0.000000   0.000000   0.000000   0.000000  -0.044600   0.000000
    40  H    0.000000   0.000000   0.000000  -0.000114  -0.004174   0.000000
    41  H    0.000000   0.000000  -0.000025   0.000170  -0.000073  -0.000027
    42  H    0.032639  -0.000181   0.000000   0.000000   0.000000   0.000000
    43  O   -0.016759  -0.000156   0.000000   0.000000   0.000000   0.000000
    44  H    0.001131   0.000006   0.000000   0.000000   0.000000   0.000000
              7          8          9         10         11         12
     1  N   -0.062766   0.413954   0.510262  -0.080799   0.004537  -0.000121
     2  N   -0.000067   0.003296   0.318121   0.002436  -0.000035   0.000000
     3  N   -0.000003   0.000023   0.000000  -0.000094  -0.026859  -0.051870
     4  N    0.000026  -0.000007   0.000000  -0.000136   0.002133   0.000445
     5  N    0.000000   0.000000   0.000000   0.000000   0.000000   0.000000
     6  N   -0.012501  -0.002268  -0.000014  -0.086252   0.506708  -0.072176
     7  C    5.099190   0.354493   0.006934  -0.057214   0.000251   0.000122
     8  C    0.354493   4.539265  -0.090389   0.600994  -0.010853   0.002962
     9  C    0.006934  -0.090389   4.601460  -0.052388   0.002497  -0.000042
    10  C   -0.057214   0.600994  -0.052388   5.501324   0.371021  -0.072811
    11  C    0.000251  -0.010853   0.002497   0.371021   4.374874   0.509772
    12  C    0.000122   0.002962  -0.000042  -0.072811   0.509772   5.244059
    13  C    0.000001  -0.000090  -0.000002   0.003309  -0.045066   0.514198
    14  C   -0.000342   0.000078   0.000002   0.005148  -0.049346  -0.028094
    15  C   -0.000129  -0.000032   0.000000   0.000025   0.000103   0.000007
    16  C   -0.000438  -0.000008   0.000000   0.000061  -0.000175  -0.000005
    17  C   -0.000147   0.000010   0.000000   0.000003   0.000000   0.000000
    18  C   -0.000002   0.000001   0.000000   0.000000   0.000000   0.000000
    19  C    0.000000   0.000000   0.000000   0.000000   0.000000   0.000000
    20  C    0.000000   0.000000   0.000000   0.000000   0.000000   0.000000
    21  C    0.000003   0.000000   0.000000   0.000000   0.000000   0.000000
    22  C   -0.000043   0.000000   0.000000   0.000001  -0.000012  -0.000001
    23  S    0.002674  -0.080001   0.343429   0.273153  -0.042687   0.000536
    24  H    0.390709  -0.029675  -0.000127  -0.005156   0.000613   0.000076
    25  H    0.381942  -0.041675   0.000263   0.004103  -0.000259   0.000003
    26  H    0.388784  -0.034027  -0.000206  -0.003653   0.000983   0.000015
    27  H    0.000002  -0.000137  -0.026327   0.000034  -0.000001   0.000000
    28  H   -0.000013   0.000252  -0.023222  -0.000077   0.000001   0.000000
    29  H    0.000000   0.000000   0.000000   0.000006  -0.000099   0.000018
    30  H   -0.000001   0.000011   0.000015  -0.000907  -0.025772   0.374168
    31  H    0.000000   0.000001   0.000000  -0.000055   0.002433  -0.051836
    32  H    0.000009   0.000001   0.000000  -0.000025  -0.000008   0.000008
    33  H    0.000000   0.000000   0.000000   0.000000   0.000000   0.000000
    34  H    0.000000   0.000000   0.000000   0.000000   0.000000   0.000000
    35  H    0.000000   0.000000   0.000000   0.000000   0.000000   0.000000
    36  H    0.000000   0.000000   0.000000   0.000000   0.000000   0.000000
    37  H    0.000000   0.000000   0.000000   0.000000   0.000000   0.000000
    38  H    0.000000   0.000000   0.000000   0.000000   0.000000   0.000000
    39  H    0.000000   0.000000   0.000000   0.000000   0.000000   0.000000
    40  H    0.000000   0.000000   0.000000   0.000000   0.000000   0.000000
    41  H    0.000000   0.000000   0.000000   0.000000   0.000000   0.000000
    42  H   -0.001089  -0.000571  -0.002107   0.000218  -0.000002   0.000000
    43  O   -0.000246  -0.000386   0.000513  -0.000013   0.000000   0.000000
    44  H   -0.000135  -0.000021  -0.000014   0.000002   0.000000   0.000000
             13         14         15         16         17         18
     1  N    0.000001  -0.000002   0.000000   0.000000   0.000000   0.000000
     2  N    0.000000   0.000000   0.000000   0.000000   0.000000   0.000000
     3  N    0.489104   0.514488   0.002634  -0.000010  -0.000001   0.000000
     4  N    0.002038   0.321966   0.196286  -0.049338   0.004690   0.000190
     5  N    0.000000   0.000000   0.000140   0.003551  -0.060177   0.291370
     6  N   -0.013878   0.496746   0.001889  -0.002797  -0.000304   0.000020
     7  C    0.000001  -0.000342  -0.000129  -0.000438  -0.000147  -0.000002
     8  C   -0.000090   0.000078  -0.000032  -0.000008   0.000010   0.000001
     9  C   -0.000002   0.000002   0.000000   0.000000   0.000000   0.000000
    10  C    0.003309   0.005148   0.000025   0.000061   0.000003   0.000000
    11  C   -0.045066  -0.049346   0.000103  -0.000175   0.000000   0.000000
    12  C    0.514198  -0.028094   0.000007  -0.000005   0.000000   0.000000
    13  C    4.612599  -0.071336  -0.000066   0.000001   0.000000   0.000000
    14  C   -0.071336   3.992456  -0.028469  -0.001835  -0.000067   0.000017
    15  C   -0.000066  -0.028469   4.556675   0.587896  -0.045734  -0.023461
    16  C    0.000001  -0.001835   0.587896   4.860554   0.531218  -0.033014
    17  C    0.000000  -0.000067  -0.045734   0.531218   5.023982   0.563109
    18  C    0.000000   0.000017  -0.023461  -0.033014   0.563109   4.420542
    19  C    0.000000   0.000000   0.000010  -0.000249  -0.009642  -0.046654
    20  C    0.000000   0.000000   0.000010  -0.000068   0.002414  -0.047476
    21  C    0.000000  -0.000043  -0.049304  -0.039718  -0.039791   0.574720
    22  C    0.000004   0.001218   0.593071  -0.047182  -0.041112  -0.034142
    23  S    0.000287  -0.000113   0.000000   0.000000   0.000000   0.000000
    24  H   -0.000006   0.000227   0.000765   0.000065  -0.000134  -0.000030
    25  H    0.000000   0.000017   0.000006   0.000022   0.000005   0.000000
    26  H    0.000000  -0.000121  -0.000052   0.000949   0.001130   0.000035
    27  H    0.000000   0.000000   0.000000   0.000000   0.000000   0.000000
    28  H    0.000000   0.000000   0.000000   0.000000   0.000000   0.000000
    29  H    0.000364  -0.021876  -0.023373   0.001656  -0.000011  -0.000001
    30  H   -0.021472   0.000459   0.000000   0.000000   0.000000   0.000000
    31  H    0.406794   0.003590   0.000003   0.000000   0.000000   0.000000
    32  H   -0.000002   0.002260  -0.024379   0.376632  -0.030415   0.001591
    33  H    0.000000  -0.000003   0.001666  -0.025794   0.380061  -0.030621
    34  H    0.000000   0.000000   0.000000   0.000007   0.000466   0.003344
    35  H    0.000000   0.000000  -0.000007   0.000163  -0.001258  -0.003495
    36  H    0.000000   0.000000  -0.000006  -0.000233   0.002126   0.002063
    37  H    0.000000   0.000000   0.000000   0.000002  -0.000052   0.003286
    38  H    0.000000   0.000000  -0.000005  -0.000019   0.000213   0.001991
    39  H    0.000000   0.000000  -0.000009   0.000006  -0.000061  -0.003250
    40  H    0.000000   0.000000   0.001770   0.000279   0.002823  -0.029955
    41  H    0.000000   0.000213  -0.033397   0.003301   0.000252   0.001618
    42  H    0.000000   0.000000   0.000000   0.000000   0.000000   0.000000
    43  O    0.000000   0.000000   0.000000   0.000000   0.000000   0.000000
    44  H    0.000000   0.000000   0.000000   0.000000   0.000000   0.000000
             19         20         21         22         23         24
     1  N    0.000000   0.000000   0.000000   0.000000  -0.074251   0.002959
     2  N    0.000000   0.000000   0.000000   0.000000  -0.065180   0.000001
     3  N    0.000000   0.000000   0.000000  -0.000132  -0.000001   0.000012
     4  N    0.000000   0.000000   0.004302  -0.058866   0.000002  -0.000163
     5  N    0.264872   0.266692  -0.061041   0.003700   0.000000   0.000000
     6  N    0.000000   0.000000  -0.000039  -0.000235   0.002245   0.002931
     7  C    0.000000   0.000000   0.000003  -0.000043   0.002674   0.390709
     8  C    0.000000   0.000000   0.000000   0.000000  -0.080001  -0.029675
     9  C    0.000000   0.000000   0.000000   0.000000   0.343429  -0.000127
    10  C    0.000000   0.000000   0.000000   0.000001   0.273153  -0.005156
    11  C    0.000000   0.000000   0.000000  -0.000012  -0.042687   0.000613
    12  C    0.000000   0.000000   0.000000  -0.000001   0.000536   0.000076
    13  C    0.000000   0.000000   0.000000   0.000004   0.000287  -0.000006
    14  C    0.000000   0.000000  -0.000043   0.001218  -0.000113   0.000227
    15  C    0.000010   0.000010  -0.049304   0.593071   0.000000   0.000765
    16  C   -0.000249  -0.000068  -0.039718  -0.047182   0.000000   0.000065
    17  C   -0.009642   0.002414  -0.039791  -0.041112   0.000000  -0.000134
    18  C   -0.046654  -0.047476   0.574720  -0.034142   0.000000  -0.000030
    19  C    4.933948  -0.051518   0.002282  -0.000074   0.000000   0.000000
    20  C   -0.051518   4.932369  -0.009861  -0.000282   0.000000   0.000000
    21  C    0.002282  -0.009861   5.013137   0.528116   0.000000   0.000013
    22  C   -0.000074  -0.000282   0.528116   4.901101   0.000000   0.000286
    23  S    0.000000   0.000000   0.000000   0.000000  15.354626   0.000075
    24  H    0.000000   0.000000   0.000013   0.000286   0.000075   0.467559
    25  H    0.000000   0.000000  -0.000001   0.000000  -0.000136  -0.023664
    26  H   -0.000001   0.000000  -0.000013  -0.000043   0.000024  -0.021720
    27  H    0.000000   0.000000   0.000000   0.000000   0.000193   0.000000
    28  H    0.000000   0.000000   0.000000   0.000000   0.002871   0.000000
    29  H    0.000000   0.000000   0.000063  -0.002027   0.000000   0.000001
    30  H    0.000000   0.000000   0.000000   0.000000   0.000260  -0.000001
    31  H    0.000000   0.000000   0.000000   0.000000  -0.000013   0.000000
    32  H   -0.000005   0.000002   0.000208   0.003491   0.000000  -0.000005
    33  H    0.000432  -0.000055   0.002773   0.000357   0.000000  -0.000001
    34  H    0.404095  -0.007475  -0.000049   0.000002   0.000000   0.000000
    35  H    0.404929   0.003916  -0.000093   0.000005   0.000000   0.000000
    36  H    0.391103   0.000683   0.000312  -0.000018   0.000000   0.000000
    37  H   -0.007420   0.404370   0.000487   0.000007   0.000000   0.000000
    38  H    0.000620   0.390989   0.002162  -0.000212   0.000000   0.000000
    39  H    0.003972   0.404576  -0.001049   0.000127   0.000000   0.000000
    40  H   -0.000059   0.000487   0.379603  -0.026044   0.000000   0.000000
    41  H    0.000002  -0.000004  -0.027042   0.376862   0.000000   0.000000
    42  H    0.000000   0.000000   0.000000   0.000000   0.000269   0.000029
    43  O    0.000000   0.000000   0.000000   0.000000  -0.000052   0.000009
    44  H    0.000000   0.000000   0.000000   0.000000   0.000002   0.000000
             25         26         27         28         29         30
     1  N   -0.003815   0.000626   0.002400   0.002558   0.000000  -0.000004
     2  N   -0.000008   0.000000   0.331045   0.321161   0.000000   0.000000
     3  N    0.000000   0.000000   0.000000   0.000000   0.006651   0.002694
     4  N   -0.000001   0.000002   0.000000   0.000000   0.326268   0.000015
     5  N    0.000000  -0.000004   0.000000   0.000000   0.000000   0.000000
     6  N    0.000569  -0.000014   0.000000   0.000000   0.003787   0.002484
     7  C    0.381942   0.388784   0.000002  -0.000013   0.000000  -0.000001
     8  C   -0.041675  -0.034027  -0.000137   0.000252   0.000000   0.000011
     9  C    0.000263  -0.000206  -0.026327  -0.023222   0.000000   0.000015
    10  C    0.004103  -0.003653   0.000034  -0.000077   0.000006  -0.000907
    11  C   -0.000259   0.000983  -0.000001   0.000001  -0.000099  -0.025772
    12  C    0.000003   0.000015   0.000000   0.000000   0.000018   0.374168
    13  C    0.000000   0.000000   0.000000   0.000000   0.000364  -0.021472
    14  C    0.000017  -0.000121   0.000000   0.000000  -0.021876   0.000459
    15  C    0.000006  -0.000052   0.000000   0.000000  -0.023373   0.000000
    16  C    0.000022   0.000949   0.000000   0.000000   0.001656   0.000000
    17  C    0.000005   0.001130   0.000000   0.000000  -0.000011   0.000000
    18  C    0.000000   0.000035   0.000000   0.000000  -0.000001   0.000000
    19  C    0.000000  -0.000001   0.000000   0.000000   0.000000   0.000000
    20  C    0.000000   0.000000   0.000000   0.000000   0.000000   0.000000
    21  C   -0.000001  -0.000013   0.000000   0.000000   0.000063   0.000000
    22  C    0.000000  -0.000043   0.000000   0.000000  -0.002027   0.000000
    23  S   -0.000136   0.000024   0.000193   0.002871   0.000000   0.000260
    24  H   -0.023664  -0.021720   0.000000   0.000000   0.000001  -0.000001
    25  H    0.536609  -0.026284   0.000000  -0.000002   0.000000   0.000000
    26  H   -0.026284   0.492198   0.000000   0.000000   0.000000   0.000000
    27  H    0.000000   0.000000   0.317298  -0.015779   0.000000   0.000000
    28  H   -0.000002   0.000000  -0.015779   0.299283   0.000000   0.000000
    29  H    0.000000   0.000000   0.000000   0.000000   0.307617  -0.000001
    30  H    0.000000   0.000000   0.000000   0.000000  -0.000001   0.446489
    31  H    0.000000   0.000000   0.000000   0.000000  -0.000034  -0.000098
    32  H    0.000000   0.000061   0.000000   0.000000  -0.000066   0.000000
    33  H    0.000000   0.000038   0.000000   0.000000   0.000002   0.000000
    34  H    0.000000   0.000000   0.000000   0.000000   0.000000   0.000000
    35  H    0.000000   0.000004   0.000000   0.000000   0.000000   0.000000
    36  H    0.000000   0.000000   0.000000   0.000000   0.000000   0.000000
    37  H    0.000000   0.000000   0.000000   0.000000   0.000000   0.000000
    38  H    0.000000   0.000000   0.000000   0.000000   0.000000   0.000000
    39  H    0.000000   0.000000   0.000000   0.000000   0.000000   0.000000
    40  H    0.000000   0.000000   0.000000   0.000000  -0.000001   0.000000
    41  H    0.000000   0.000000   0.000000   0.000000   0.001187   0.000000
    42  H    0.000671   0.000084  -0.000002   0.001065   0.000000   0.000000
    43  O    0.002412  -0.000024   0.000000   0.001813   0.000000   0.000000
    44  H    0.001041  -0.000001   0.000000  -0.000062   0.000000   0.000000
             31         32         33         34         35         36
     1  N    0.000000   0.000000   0.000000   0.000000   0.000000   0.000000
     2  N    0.000000   0.000000   0.000000   0.000000   0.000000   0.000000
     3  N   -0.042527  -0.000015   0.000000   0.000000   0.000000   0.000000
     4  N   -0.000048  -0.003392  -0.000103   0.000000   0.000000   0.000000
     5  N    0.000000  -0.000070  -0.003992  -0.036738  -0.044436  -0.057628
     6  N   -0.000568   0.001756  -0.000007   0.000000   0.000000   0.000000
     7  C    0.000000   0.000009   0.000000   0.000000   0.000000   0.000000
     8  C    0.000001   0.000001   0.000000   0.000000   0.000000   0.000000
     9  C    0.000000   0.000000   0.000000   0.000000   0.000000   0.000000
    10  C   -0.000055  -0.000025   0.000000   0.000000   0.000000   0.000000
    11  C    0.002433  -0.000008   0.000000   0.000000   0.000000   0.000000
    12  C   -0.051836   0.000008   0.000000   0.000000   0.000000   0.000000
    13  C    0.406794  -0.000002   0.000000   0.000000   0.000000   0.000000
    14  C    0.003590   0.002260  -0.000003   0.000000   0.000000   0.000000
    15  C    0.000003  -0.024379   0.001666   0.000000  -0.000007  -0.000006
    16  C    0.000000   0.376632  -0.025794   0.000007   0.000163  -0.000233
    17  C    0.000000  -0.030415   0.380061   0.000466  -0.001258   0.002126
    18  C    0.000000   0.001591  -0.030621   0.003344  -0.003495   0.002063
    19  C    0.000000  -0.000005   0.000432   0.404095   0.404929   0.391103
    20  C    0.000000   0.000002  -0.000055  -0.007475   0.003916   0.000683
    21  C    0.000000   0.000208   0.002773  -0.000049  -0.000093   0.000312
    22  C    0.000000   0.003491   0.000357   0.000002   0.000005  -0.000018
    23  S   -0.000013   0.000000   0.000000   0.000000   0.000000   0.000000
    24  H    0.000000  -0.000005  -0.000001   0.000000   0.000000   0.000000
    25  H    0.000000   0.000000   0.000000   0.000000   0.000000   0.000000
    26  H    0.000000   0.000061   0.000038   0.000000   0.000004   0.000000
    27  H    0.000000   0.000000   0.000000   0.000000   0.000000   0.000000
    28  H    0.000000   0.000000   0.000000   0.000000   0.000000   0.000000
    29  H   -0.000034  -0.000066   0.000002   0.000000   0.000000   0.000000
    30  H   -0.000098   0.000000   0.000000   0.000000   0.000000   0.000000
    31  H    0.468774   0.000000   0.000000   0.000000   0.000000   0.000000
    32  H    0.000000   0.456589  -0.001900   0.000000   0.000000  -0.000002
    33  H    0.000000  -0.001900   0.472740   0.000161  -0.002057  -0.000165
    34  H    0.000000   0.000000   0.000161   0.514337  -0.025145  -0.030479
    35  H    0.000000   0.000000  -0.002057  -0.025145   0.532619  -0.043874
    36  H    0.000000  -0.000002  -0.000165  -0.030479  -0.043874   0.575955
    37  H    0.000000   0.000000   0.000000   0.001868   0.000247  -0.000069
    38  H    0.000000   0.000000   0.000004  -0.000051  -0.000355   0.002376
    39  H    0.000000   0.000000  -0.000001   0.000241   0.000018  -0.000354
    40  H    0.000000   0.000011  -0.000123   0.000000  -0.000003   0.000008
    41  H    0.000000  -0.000132   0.000012   0.000000   0.000000   0.000000
    42  H    0.000000   0.000000   0.000000   0.000000   0.000000   0.000000
    43  O    0.000000   0.000000   0.000000   0.000000   0.000000   0.000000
    44  H    0.000000   0.000000   0.000000   0.000000   0.000000   0.000000
             37         38         39         40         41         42
     1  N    0.000000   0.000000   0.000000   0.000000   0.000000   0.032639
     2  N    0.000000   0.000000   0.000000   0.000000   0.000000  -0.000181
     3  N    0.000000   0.000000   0.000000   0.000000  -0.000025   0.000000
     4  N    0.000000   0.000000   0.000000  -0.000114   0.000170   0.000000
     5  N   -0.036831  -0.057995  -0.044600  -0.004174  -0.000073   0.000000
     6  N    0.000000   0.000000   0.000000   0.000000  -0.000027   0.000000
     7  C    0.000000   0.000000   0.000000   0.000000   0.000000  -0.001089
     8  C    0.000000   0.000000   0.000000   0.000000   0.000000  -0.000571
     9  C    0.000000   0.000000   0.000000   0.000000   0.000000  -0.002107
    10  C    0.000000   0.000000   0.000000   0.000000   0.000000   0.000218
    11  C    0.000000   0.000000   0.000000   0.000000   0.000000  -0.000002
    12  C    0.000000   0.000000   0.000000   0.000000   0.000000   0.000000
    13  C    0.000000   0.000000   0.000000   0.000000   0.000000   0.000000
    14  C    0.000000   0.000000   0.000000   0.000000   0.000213   0.000000
    15  C    0.000000  -0.000005  -0.000009   0.001770  -0.033397   0.000000
    16  C    0.000002  -0.000019   0.000006   0.000279   0.003301   0.000000
    17  C   -0.000052   0.000213  -0.000061   0.002823   0.000252   0.000000
    18  C    0.003286   0.001991  -0.003250  -0.029955   0.001618   0.000000
    19  C   -0.007420   0.000620   0.003972  -0.000059   0.000002   0.000000
    20  C    0.404370   0.390989   0.404576   0.000487  -0.000004   0.000000
    21  C    0.000487   0.002162  -0.001049   0.379603  -0.027042   0.000000
    22  C    0.000007  -0.000212   0.000127  -0.026044   0.376862   0.000000
    23  S    0.000000   0.000000   0.000000   0.000000   0.000000   0.000269
    24  H    0.000000   0.000000   0.000000   0.000000   0.000000   0.000029
    25  H    0.000000   0.000000   0.000000   0.000000   0.000000   0.000671
    26  H    0.000000   0.000000   0.000000   0.000000   0.000000   0.000084
    27  H    0.000000   0.000000   0.000000   0.000000   0.000000  -0.000002
    28  H    0.000000   0.000000   0.000000   0.000000   0.000000   0.001065
    29  H    0.000000   0.000000   0.000000  -0.000001   0.001187   0.000000
    30  H    0.000000   0.000000   0.000000   0.000000   0.000000   0.000000
    31  H    0.000000   0.000000   0.000000   0.000000   0.000000   0.000000
    32  H    0.000000   0.000000   0.000000   0.000011  -0.000132   0.000000
    33  H    0.000000   0.000004  -0.000001  -0.000123   0.000012   0.000000
    34  H    0.001868  -0.000051   0.000241   0.000000   0.000000   0.000000
    35  H    0.000247  -0.000355   0.000018  -0.000003   0.000000   0.000000
    36  H   -0.000069   0.002376  -0.000354   0.000008   0.000000   0.000000
    37  H    0.513716  -0.030918  -0.024833   0.000165   0.000000   0.000000
    38  H   -0.030918   0.578532  -0.044293   0.000026  -0.000002   0.000000
    39  H   -0.024833  -0.044293   0.534791  -0.002364   0.000001   0.000000
    40  H    0.000165   0.000026  -0.002364   0.474902  -0.002120   0.000000
    41  H    0.000000  -0.000002   0.000001  -0.002120   0.473016   0.000000
    42  H    0.000000   0.000000   0.000000   0.000000   0.000000   0.230310
    43  O    0.000000   0.000000   0.000000   0.000000   0.000000   0.250962
    44  H    0.000000   0.000000   0.000000   0.000000   0.000000  -0.016922
             43         44
     1  N   -0.016759   0.001131
     2  N   -0.000156   0.000006
     3  N    0.000000   0.000000
     4  N    0.000000   0.000000
     5  N    0.000000   0.000000
     6  N    0.000000   0.000000
     7  C   -0.000246  -0.000135
     8  C   -0.000386  -0.000021
     9  C    0.000513  -0.000014
    10  C   -0.000013   0.000002
    11  C    0.000000   0.000000
    12  C    0.000000   0.000000
    13  C    0.000000   0.000000
    14  C    0.000000   0.000000
    15  C    0.000000   0.000000
    16  C    0.000000   0.000000
    17  C    0.000000   0.000000
    18  C    0.000000   0.000000
    19  C    0.000000   0.000000
    20  C    0.000000   0.000000
    21  C    0.000000   0.000000
    22  C    0.000000   0.000000
    23  S   -0.000052   0.000002
    24  H    0.000009   0.000000
    25  H    0.002412   0.001041
    26  H   -0.000024  -0.000001
    27  H    0.000000   0.000000
    28  H    0.001813  -0.000062
    29  H    0.000000   0.000000
    30  H    0.000000   0.000000
    31  H    0.000000   0.000000
    32  H    0.000000   0.000000
    33  H    0.000000   0.000000
    34  H    0.000000   0.000000
    35  H    0.000000   0.000000
    36  H    0.000000   0.000000
    37  H    0.000000   0.000000
    38  H    0.000000   0.000000
    39  H    0.000000   0.000000
    40  H    0.000000   0.000000
    41  H    0.000000   0.000000
    42  H    0.250962  -0.016922
    43  O    8.443673   0.267432
    44  H    0.267432   0.326506
 Mulliken atomic charges:
              1
     1  N   -0.657471
     2  N   -0.888710
     3  N   -0.625105
     4  N   -0.912738
     5  N   -0.668963
     6  N   -0.685249
     7  C   -0.490007
     8  C    0.374799
     9  C    0.411344
    10  C   -0.402257
    11  C    0.425250
    12  C   -0.369433
    13  C    0.123220
    14  C    0.862762
    15  C    0.285470
    16  C   -0.165482
    17  C   -0.283595
    18  C    0.388204
    19  C   -0.290642
    20  C   -0.289770
    21  C   -0.280138
    22  C   -0.197921
    23  S    0.281784
    24  H    0.214351
    25  H    0.168182
    26  H    0.201230
    27  H    0.391273
    28  H    0.410149
    29  H    0.399870
    30  H    0.221662
    31  H    0.213585
    32  H    0.217797
    33  H    0.206575
    34  H    0.175415
    35  H    0.178821
    36  H    0.158201
    37  H    0.175974
    38  H    0.156936
    39  H    0.177081
    40  H    0.204880
    41  H    0.206188
    42  H    0.504625
    43  O   -0.949178
    44  H    0.421033
 Sum of Mulliken atomic charges =   0.00000
 Mulliken charges with hydrogens summed into heavy atoms:
              1
     1  N   -0.657471
     2  N   -0.087289
     3  N   -0.625105
     4  N   -0.512869
     5  N   -0.668963
     6  N   -0.685249
     7  C    0.093756
     8  C    0.374799
     9  C    0.411344
    10  C   -0.402257
    11  C    0.425250
    12  C   -0.147771
    13  C    0.336805
    14  C    0.862762
    15  C    0.285470
    16  C    0.052314
    17  C   -0.077020
    18  C    0.388204
    19  C    0.221795
    20  C    0.220222
    21  C   -0.075258
    22  C    0.008267
    23  S    0.281784
    43  O   -0.023520
 Sum of Mulliken charges with hydrogens summed into heavy atoms =   0.00000
 Electronic spatial extent (au):  <R**2>=          11675.7883
 Charge=              0.0000 electrons
 Dipole moment (field-independent basis, Debye):
    X=              0.3811    Y=              0.8985    Z=              0.4953  Tot=              1.0945
 Quadrupole moment (field-independent basis, Debye-Ang):
   XX=           -110.1284   YY=           -163.5757   ZZ=           -144.9683
   XY=             -5.5191   XZ=             -9.0399   YZ=             -5.5621
 Traceless Quadrupole moment (field-independent basis, Debye-Ang):
   XX=             29.4291   YY=            -24.0182   ZZ=             -5.4108
   XY=             -5.5191   XZ=             -9.0399   YZ=             -5.5621
 Octapole moment (field-independent basis, Debye-Ang**2):
  XXX=             12.5208  YYY=            218.3698  ZZZ=             14.0095  XYY=             36.5030
  XXY=            -39.9976  XXZ=             44.2745  XZZ=             26.8650  YZZ=             10.8845
  YYZ=             12.4056  XYZ=             12.5724
 Hexadecapole moment (field-independent basis, Debye-Ang**3):
 XXXX=          -9124.0155 YYYY=          -5227.6617 ZZZZ=           -529.9004 XXXY=           -120.0960
 XXXZ=           -440.7229 YYYX=           -479.2945 YYYZ=           -167.8711 ZZZX=            -54.8314
 ZZZY=            -82.8848 XXYY=          -2170.3313 XXZZ=          -1859.8914 YYZZ=           -748.2423
 XXYZ=           -250.7801 YYXZ=           -106.9767 ZZXY=            -51.0869
 N-N= 2.119879739371D+03 E-N=-7.567889536707D+03  KE= 1.415223102664D+03
 Calling FoFJK, ICntrl=      2127 FMM=F ISym2X=0 I1Cent= 0 IOpClX= 0 NMat=1 NMatS=1 NMatT=0.
 -------------------------------------------------------------------
 Center     Atomic                   Forces (Hartrees/Bohr)
 Number     Number              X              Y              Z
 -------------------------------------------------------------------
      1        7           0.000902058    0.004151085   -0.000642142
      2        7           0.004050584    0.002168095    0.000284751
      3        7          -0.001139925   -0.000231049   -0.000074727
      4        7          -0.000998761    0.000021421   -0.000126959
      5        7          -0.000324107    0.000495154   -0.000012161
      6        7          -0.001050725   -0.000988745   -0.000203887
      7        6           0.000108478    0.000277660    0.000547811
      8        6           0.002634764    0.004310447    0.000077724
      9        6          -0.009323463   -0.001149170    0.002272351
     10        6           0.000229583   -0.003047912   -0.000604289
     11        6           0.000924196    0.002221719    0.000111378
     12        6          -0.000192257   -0.001659579   -0.000119317
     13        6           0.000911985    0.000909726    0.000088153
     14        6           0.001661679    0.000374492    0.000131623
     15        6           0.000259796   -0.000309842    0.000011031
     16        6          -0.000001974    0.000001811   -0.000008954
     17        6          -0.000156737   -0.000057976    0.000124256
     18        6           0.000406861   -0.000399607   -0.000030078
     19        6          -0.000047119   -0.000203523    0.000215034
     20        6           0.000072969    0.000003679   -0.000069619
     21        6          -0.000101300    0.000117321   -0.000115796
     22        6          -0.000001894    0.000014954   -0.000086323
     23       16           0.000867588   -0.001806163   -0.000308738
     24        1          -0.000197844   -0.000226218   -0.000130468
     25        1           0.000896472    0.000239282   -0.000008149
     26        1          -0.000114195   -0.000268006   -0.000321925
     27        1          -0.000309775    0.000135600   -0.000265071
     28        1          -0.000618870   -0.001648291   -0.000506994
     29        1           0.000006870    0.000063307    0.000064567
     30        1          -0.000079658    0.000105083   -0.000000234
     31        1           0.000017685   -0.000080858    0.000002653
     32        1           0.000036081   -0.000006694    0.000087963
     33        1           0.000006198    0.000020602   -0.000023400
     34        1          -0.000048456    0.000020498    0.000006807
     35        1           0.000051921   -0.000015504   -0.000025962
     36        1           0.000012680    0.000014343   -0.000055039
     37        1          -0.000035232    0.000029189   -0.000002571
     38        1          -0.000013349   -0.000016414    0.000007901
     39        1           0.000010770   -0.000010955   -0.000021398
     40        1           0.000000572    0.000013343    0.000022796
     41        1           0.000036767    0.000025207   -0.000006680
     42        1          -0.000320039    0.006416040    0.001774987
     43        8           0.002066970   -0.009459114   -0.002597491
     44        1          -0.001097850   -0.000564437    0.000536584
 -------------------------------------------------------------------
 Cartesian Forces:  Max     0.009459114 RMS     0.001611963
 -----------------------------------------------------------------------------------------------
                       Internal Coordinate Forces (Hartree/Bohr or radian)
  Cent   Atom   N1       Length/X         N2         Alpha/Y        N3         Beta/Z          J
 -----------------------------------------------------------------------------------------------
      1  N           -0.000790(     1)     -0.000825(    48)     -0.000543(    95)
      2  N            0.004051(     2)      0.002168(    49)      0.000285(    96)
      3  N           -0.001140(     3)     -0.000231(    50)     -0.000075(    97)
      4  N           -0.000999(     4)      0.000021(    51)     -0.000127(    98)
      5  N           -0.000324(     5)      0.000495(    52)     -0.000012(    99)
      6  N           -0.001051(     6)     -0.000989(    53)     -0.000204(   100)
      7  C            0.000108(     7)      0.000278(    54)      0.000548(   101)
      8  C            0.002635(     8)      0.004310(    55)      0.000078(   102)
      9  C           -0.009323(     9)     -0.001149(    56)      0.002272(   103)
     10  C            0.000230(    10)     -0.003048(    57)     -0.000604(   104)
     11  C            0.000924(    11)      0.002222(    58)      0.000111(   105)
     12  C           -0.000192(    12)     -0.001660(    59)     -0.000119(   106)
     13  C            0.000912(    13)      0.000910(    60)      0.000088(   107)
     14  C            0.001662(    14)      0.000374(    61)      0.000132(   108)
     15  C            0.000260(    15)     -0.000310(    62)      0.000011(   109)
     16  C           -0.000002(    16)      0.000002(    63)     -0.000009(   110)
     17  C           -0.000157(    17)     -0.000058(    64)      0.000124(   111)
     18  C            0.000407(    18)     -0.000400(    65)     -0.000030(   112)
     19  C           -0.000047(    19)     -0.000204(    66)      0.000215(   113)
     20  C            0.000073(    20)      0.000004(    67)     -0.000070(   114)
     21  C           -0.000101(    21)      0.000117(    68)     -0.000116(   115)
     22  C           -0.000002(    22)      0.000015(    69)     -0.000086(   116)
     23  S            0.000868(    23)     -0.001806(    70)     -0.000309(   117)
     24  H           -0.000198(    24)     -0.000226(    71)     -0.000130(   118)
     25  H            0.000896(    25)      0.000239(    72)     -0.000008(   119)
     26  H           -0.000114(    26)     -0.000268(    73)     -0.000322(   120)
     27  H           -0.000310(    27)      0.000136(    74)     -0.000265(   121)
     28  H           -0.000619(    28)     -0.001648(    75)     -0.000507(   122)
     29  H            0.000007(    29)      0.000063(    76)      0.000065(   123)
     30  H           -0.000080(    30)      0.000105(    77)      0.000000(   124)
     31  H            0.000018(    31)     -0.000081(    78)      0.000003(   125)
     32  H            0.000036(    32)     -0.000007(    79)      0.000088(   126)
     33  H            0.000006(    33)      0.000021(    80)     -0.000023(   127)
     34  H           -0.000048(    34)      0.000020(    81)      0.000007(   128)
     35  H            0.000052(    35)     -0.000016(    82)     -0.000026(   129)
     36  H            0.000013(    36)      0.000014(    83)     -0.000055(   130)
     37  H           -0.000035(    37)      0.000029(    84)     -0.000003(   131)
     38  H           -0.000013(    38)     -0.000016(    85)      0.000008(   132)
     39  H            0.000011(    39)     -0.000011(    86)     -0.000021(   133)
     40  H            0.000001(    40)      0.000013(    87)      0.000023(   134)
     41  H            0.000037(    41)      0.000025(    88)     -0.000007(   135)
         X            0.002056(    42)      0.000728(    89)     -0.000413(   136)
         X            0.000285(    43)      0.000640(    90)      0.000028(   137)
     42  H        1   0.003613(    44)     43  -0.001479(    91)     42   0.006292(   138)     0
         X       44   0.000000(    45)      1   0.000120(    92)     43   0.001962(   139)     0
     43  O       44   0.010079(    46)     45   0.000120(    93)     43   0.004323(   140)     0
     44  H       46  -0.001034(    47)     44   0.000690(    94)     45  -0.001329(   141)     0
 -----------------------------------------------------------------------------------------------
 Internal  Forces:  Max     0.010078757 RMS     0.001613595

 GradGradGradGradGradGradGradGradGradGradGradGradGradGradGradGradGradGrad
 Berny optimization.
 Search for a local minimum.
 Step number   1 out of a maximum of  100
 All quantities printed in internal units (Hartrees-Bohrs-Radians)
 Second derivative matrix not updated -- first step.
 The second derivative matrix:
                          roh       phi
           roh          0.04525
           phi          0.00000   0.00000
     Eigenvalues ---    0.00000   0.04525
 RFO step:  Lambda=-1.47576332D-03 EMin=-9.94330279D-17
 Linear search not attempted -- first point.
 Maximum step size (   0.300) exceeded in Quadratic search.
    -- Step size scaled by   0.332
 Variable       Old X    -DE/DX   Delta X   Delta X   Delta X     New X
                                 (Linear)    (Quad)   (Total)
   roh        3.72352   0.00361   0.00000   0.02567   0.02567   3.74919
   phi       -2.42957  -0.00133   0.00000  -0.29890  -0.29890  -2.72847
         Item               Value     Threshold  Converged?
 Maximum Force            0.003613     0.000450     NO 
 RMS     Force            0.002722     0.000300     NO 
 Maximum Displacement     0.298900     0.001800     NO 
 RMS     Displacement     0.212132     0.001200     NO 
 Predicted change in Energy=-4.750020D-04
 GradGradGradGradGradGradGradGradGradGradGradGradGradGradGradGradGradGrad

 ---------------------------------------------------------------------------------------------------
                            Z-MATRIX (ANGSTROMS AND DEGREES)
   CD    Cent   Atom    N1       Length/X        N2       Alpha/Y        N3        Beta/Z          J
 ---------------------------------------------------------------------------------------------------
      1      1  N        0  -3.013310         -2.511550         -0.412190
      2      2  N        0  -5.227560         -3.080250          0.017760
      3      3  N        0  -0.978170          3.560350          0.131290
      4      4  N        0   1.039990          2.528080          0.168310
      5      5  N        0   4.965790         -1.515470         -0.008700
      6      6  N        0  -0.840430          1.198040          0.040700
      7      7  C        0  -0.761600         -1.677320         -0.873750
      8      8  C        0  -2.178550         -1.415950         -0.453810
      9      9  C        0  -4.200080         -2.188550         -0.056910
     10     10  C        0  -2.743260         -0.232570         -0.111110
     11     11  C        0  -2.161610          1.109840         -0.029690
     12     12  C        0  -2.958510          2.253840         -0.018700
     13     13  C        0  -2.287360          3.456620          0.067680
     14     14  C        0  -0.310180          2.407830          0.107020
[...]
     9  C    0.000000   0.000000   0.000000   0.000000   0.341890  -0.000131
    10  C    0.000000   0.000000   0.000000   0.000001   0.274151  -0.005208
    11  C    0.000000   0.000000   0.000000  -0.000012  -0.042752   0.000606
    12  C    0.000000   0.000000   0.000000  -0.000001   0.000525   0.000077
    13  C    0.000000   0.000000   0.000000   0.000004   0.000285  -0.000006
    14  C    0.000000   0.000000  -0.000043   0.001215  -0.000113   0.000222
    15  C    0.000010   0.000010  -0.049293   0.593096   0.000000   0.000759
    16  C   -0.000250  -0.000068  -0.039737  -0.047154   0.000000   0.000063
    17  C   -0.009648   0.002415  -0.039770  -0.041125   0.000000  -0.000133
    18  C   -0.046631  -0.047473   0.574694  -0.034104   0.000000  -0.000030
    19  C    4.933933  -0.051540   0.002284  -0.000074   0.000000   0.000000
    20  C   -0.051540   4.932139  -0.009875  -0.000283   0.000000   0.000000
    21  C    0.002284  -0.009875   5.013018   0.528150   0.000000   0.000013
    22  C   -0.000074  -0.000283   0.528150   4.900966   0.000000   0.000284
    23  S    0.000000   0.000000   0.000000   0.000000  15.358958   0.000080
    24  H    0.000000   0.000000   0.000013   0.000284   0.000080   0.470341
    25  H    0.000000   0.000000  -0.000001   0.000000  -0.000124  -0.023491
    26  H   -0.000001   0.000000  -0.000013  -0.000043   0.000022  -0.021942
    27  H    0.000000   0.000000   0.000000   0.000000   0.000238   0.000000
    28  H    0.000000   0.000000   0.000000   0.000000   0.002956   0.000000
    29  H    0.000000   0.000000   0.000063  -0.002029   0.000000   0.000001
    30  H    0.000000   0.000000   0.000000   0.000000   0.000261  -0.000001
    31  H    0.000000   0.000000   0.000000   0.000000  -0.000013   0.000000
    32  H   -0.000005   0.000002   0.000209   0.003492   0.000000  -0.000005
    33  H    0.000449  -0.000055   0.002775   0.000357   0.000000  -0.000001
    34  H    0.404077  -0.007479  -0.000049   0.000002   0.000000   0.000000
    35  H    0.404991   0.003913  -0.000093   0.000004   0.000000   0.000000
    36  H    0.390974   0.000679   0.000312  -0.000018   0.000000   0.000000
    37  H   -0.007418   0.404369   0.000487   0.000007   0.000000   0.000000
    38  H    0.000621   0.390878   0.002172  -0.000212   0.000000   0.000000
    39  H    0.003971   0.404598  -0.001056   0.000127   0.000000   0.000000
    40  H   -0.000059   0.000496   0.379584  -0.026080   0.000000   0.000000
    41  H    0.000002  -0.000004  -0.027065   0.376863   0.000000   0.000000
    42  H    0.000000   0.000000   0.000000   0.000000   0.000232   0.000021
    43  O    0.000000   0.000000   0.000000   0.000000  -0.000034   0.000006
    44  H    0.000000   0.000000   0.000000   0.000000   0.000002  -0.000001
             25         26         27         28         29         30
     1  N   -0.003388   0.000569   0.002391   0.002818   0.000000  -0.000005
     2  N   -0.000009   0.000000   0.331128   0.320639   0.000000   0.000000
     3  N    0.000000   0.000000   0.000000   0.000000   0.006658   0.002698
     4  N   -0.000001   0.000002   0.000000   0.000000   0.326305   0.000015
     5  N    0.000000  -0.000004   0.000000   0.000000   0.000000   0.000000
     6  N    0.000558  -0.000011   0.000000   0.000000   0.003789   0.002485
     7  C    0.382036   0.388601   0.000002  -0.000012   0.000000  -0.000001
     8  C   -0.040707  -0.034072  -0.000140   0.000278   0.000000   0.000011
     9  C    0.000219  -0.000208  -0.026162  -0.023743   0.000000   0.000015
    10  C    0.004173  -0.003546   0.000036  -0.000081   0.000006  -0.000909
    11  C   -0.000261   0.000974  -0.000001   0.000001  -0.000099  -0.025775
    12  C    0.000003   0.000015   0.000000   0.000000   0.000018   0.374177
    13  C    0.000000   0.000000   0.000000   0.000000   0.000364  -0.021531
    14  C    0.000016  -0.000121   0.000000   0.000000  -0.021921   0.000460
    15  C    0.000006  -0.000053   0.000000   0.000000  -0.023395   0.000000
    16  C    0.000022   0.000941   0.000000   0.000000   0.001657   0.000000
    17  C    0.000005   0.001119   0.000000   0.000000  -0.000010   0.000000
    18  C    0.000000   0.000035   0.000000   0.000000  -0.000001   0.000000
    19  C    0.000000  -0.000001   0.000000   0.000000   0.000000   0.000000
    20  C    0.000000   0.000000   0.000000   0.000000   0.000000   0.000000
    21  C   -0.000001  -0.000013   0.000000   0.000000   0.000063   0.000000
    22  C    0.000000  -0.000043   0.000000   0.000000  -0.002029   0.000000
    23  S   -0.000124   0.000022   0.000238   0.002956   0.000000   0.000261
    24  H   -0.023491  -0.021942   0.000000   0.000000   0.000001  -0.000001
    25  H    0.525234  -0.025478   0.000000  -0.000003   0.000000   0.000000
    26  H   -0.025478   0.492833   0.000000   0.000000   0.000000   0.000000
    27  H    0.000000   0.000000   0.317029  -0.015907   0.000000   0.000000
    28  H   -0.000003   0.000000  -0.015907   0.303629   0.000000   0.000000
    29  H    0.000000   0.000000   0.000000   0.000000   0.307851  -0.000001
    30  H    0.000000   0.000000   0.000000   0.000000  -0.000001   0.447006
    31  H    0.000000   0.000000   0.000000   0.000000  -0.000034  -0.000099
    32  H    0.000000   0.000061   0.000000   0.000000  -0.000066   0.000000
    33  H    0.000000   0.000038   0.000000   0.000000   0.000002   0.000000
    34  H    0.000000   0.000000   0.000000   0.000000   0.000000   0.000000
    35  H    0.000000   0.000004   0.000000   0.000000   0.000000   0.000000
    36  H    0.000000   0.000000   0.000000   0.000000   0.000000   0.000000
    37  H    0.000000   0.000000   0.000000   0.000000   0.000000   0.000000
    38  H    0.000000   0.000000   0.000000   0.000000   0.000000   0.000000
    39  H    0.000000   0.000000   0.000000   0.000000   0.000000   0.000000
    40  H    0.000000   0.000000   0.000000   0.000000  -0.000001   0.000000
    41  H    0.000000   0.000000   0.000000   0.000000   0.001188   0.000000
    42  H    0.000561   0.000079  -0.000001   0.001154   0.000000   0.000000
    43  O    0.002495  -0.000017   0.000000   0.001979   0.000000   0.000000
    44  H    0.000240   0.000000   0.000000  -0.000046   0.000000   0.000000
             31         32         33         34         35         36
     1  N    0.000000   0.000000   0.000000   0.000000   0.000000   0.000000
     2  N    0.000000   0.000000   0.000000   0.000000   0.000000   0.000000
     3  N   -0.042561  -0.000015   0.000000   0.000000   0.000000   0.000000
     4  N   -0.000048  -0.003393  -0.000103   0.000000   0.000000   0.000000
     5  N    0.000000  -0.000070  -0.003999  -0.036735  -0.044369  -0.057670
     6  N   -0.000569   0.001754  -0.000007   0.000000   0.000000   0.000000
     7  C    0.000000   0.000010   0.000000   0.000000   0.000000   0.000000
     8  C    0.000001   0.000001   0.000000   0.000000   0.000000   0.000000
     9  C    0.000000   0.000000   0.000000   0.000000   0.000000   0.000000
    10  C   -0.000055  -0.000025   0.000000   0.000000   0.000000   0.000000
    11  C    0.002434  -0.000008   0.000000   0.000000   0.000000   0.000000
    12  C   -0.051900   0.000008   0.000000   0.000000   0.000000   0.000000
    13  C    0.406819  -0.000002   0.000000   0.000000   0.000000   0.000000
    14  C    0.003588   0.002263  -0.000003   0.000000   0.000000   0.000000
    15  C    0.000003  -0.024413   0.001667   0.000000  -0.000007  -0.000006
    16  C    0.000000   0.376623  -0.025805   0.000007   0.000163  -0.000233
    17  C    0.000000  -0.030403   0.380040   0.000467  -0.001269   0.002134
    18  C    0.000000   0.001592  -0.030592   0.003343  -0.003482   0.002052
    19  C    0.000000  -0.000005   0.000449   0.404077   0.404991   0.390974
    20  C    0.000000   0.000002  -0.000055  -0.007479   0.003913   0.000679
    21  C    0.000000   0.000209   0.002775  -0.000049  -0.000093   0.000312
    22  C    0.000000   0.003492   0.000357   0.000002   0.000004  -0.000018
    23  S   -0.000013   0.000000   0.000000   0.000000   0.000000   0.000000
    24  H    0.000000  -0.000005  -0.000001   0.000000   0.000000   0.000000
    25  H    0.000000   0.000000   0.000000   0.000000   0.000000   0.000000
    26  H    0.000000   0.000061   0.000038   0.000000   0.000004   0.000000
    27  H    0.000000   0.000000   0.000000   0.000000   0.000000   0.000000
    28  H    0.000000   0.000000   0.000000   0.000000   0.000000   0.000000
    29  H   -0.000034  -0.000066   0.000002   0.000000   0.000000   0.000000
    30  H   -0.000099   0.000000   0.000000   0.000000   0.000000   0.000000
    31  H    0.469277   0.000000   0.000000   0.000000   0.000000   0.000000
    32  H    0.000000   0.456846  -0.001903   0.000000   0.000000  -0.000002
    33  H    0.000000  -0.001903   0.472755   0.000161  -0.002048  -0.000169
    34  H    0.000000   0.000000   0.000161   0.514522  -0.025100  -0.030538
    35  H    0.000000   0.000000  -0.002048  -0.025100   0.531858  -0.043878
    36  H    0.000000  -0.000002  -0.000169  -0.030538  -0.043878   0.576639
    37  H    0.000000   0.000000   0.000000   0.001867   0.000247  -0.000069
    38  H    0.000000   0.000000   0.000004  -0.000051  -0.000355   0.002381
    39  H    0.000000   0.000000  -0.000001   0.000241   0.000018  -0.000354
    40  H    0.000000   0.000011  -0.000123   0.000000  -0.000003   0.000008
    41  H    0.000000  -0.000132   0.000012   0.000000   0.000000   0.000000
    42  H    0.000000   0.000000   0.000000   0.000000   0.000000   0.000000
    43  O    0.000000   0.000000   0.000000   0.000000   0.000000   0.000000
    44  H    0.000000   0.000000   0.000000   0.000000   0.000000   0.000000
             37         38         39         40         41         42
     1  N    0.000000   0.000000   0.000000   0.000000   0.000000   0.030979
     2  N    0.000000   0.000000   0.000000   0.000000   0.000000  -0.000245
     3  N    0.000000   0.000000   0.000000   0.000000  -0.000025   0.000000
     4  N    0.000000   0.000000   0.000000  -0.000114   0.000169   0.000000
     5  N   -0.036828  -0.058029  -0.044587  -0.004179  -0.000074   0.000000
     6  N    0.000000   0.000000   0.000000   0.000000  -0.000027   0.000000
     7  C    0.000000   0.000000   0.000000   0.000000   0.000000  -0.000819
     8  C    0.000000   0.000000   0.000000   0.000000   0.000000  -0.000404
     9  C    0.000000   0.000000   0.000000   0.000000   0.000000  -0.001708
    10  C    0.000000   0.000000   0.000000   0.000000   0.000000   0.000153
    11  C    0.000000   0.000000   0.000000   0.000000   0.000000  -0.000002
    12  C    0.000000   0.000000   0.000000   0.000000   0.000000   0.000000
    13  C    0.000000   0.000000   0.000000   0.000000   0.000000   0.000000
    14  C    0.000000   0.000000   0.000000   0.000000   0.000213   0.000000
    15  C    0.000000  -0.000005  -0.000009   0.001771  -0.033436   0.000000
    16  C    0.000002  -0.000019   0.000006   0.000280   0.003302   0.000000
    17  C   -0.000052   0.000213  -0.000061   0.002824   0.000253   0.000000
    18  C    0.003284   0.001983  -0.003238  -0.029942   0.001619   0.000000
    19  C   -0.007418   0.000621   0.003971  -0.000059   0.000002   0.000000
    20  C    0.404369   0.390878   0.404598   0.000496  -0.000004   0.000000
    21  C    0.000487   0.002172  -0.001056   0.379584  -0.027065   0.000000
    22  C    0.000007  -0.000212   0.000127  -0.026080   0.376863   0.000000
    23  S    0.000000   0.000000   0.000000   0.000000   0.000000   0.000232
    24  H    0.000000   0.000000   0.000000   0.000000   0.000000   0.000021
    25  H    0.000000   0.000000   0.000000   0.000000   0.000000   0.000561
    26  H    0.000000   0.000000   0.000000   0.000000   0.000000   0.000079
    27  H    0.000000   0.000000   0.000000   0.000000   0.000000  -0.000001
    28  H    0.000000   0.000000   0.000000   0.000000   0.000000   0.001154
    29  H    0.000000   0.000000   0.000000  -0.000001   0.001188   0.000000
    30  H    0.000000   0.000000   0.000000   0.000000   0.000000   0.000000
    31  H    0.000000   0.000000   0.000000   0.000000   0.000000   0.000000
    32  H    0.000000   0.000000   0.000000   0.000011  -0.000132   0.000000
    33  H    0.000000   0.000004  -0.000001  -0.000123   0.000012   0.000000
    34  H    0.001867  -0.000051   0.000241   0.000000   0.000000   0.000000
    35  H    0.000247  -0.000355   0.000018  -0.000003   0.000000   0.000000
    36  H   -0.000069   0.002381  -0.000354   0.000008   0.000000   0.000000
    37  H    0.513862  -0.030968  -0.024816   0.000165   0.000000   0.000000
    38  H   -0.030968   0.579154  -0.044342   0.000025  -0.000002   0.000000
    39  H   -0.024816  -0.044342   0.534680  -0.002361   0.000001   0.000000
    40  H    0.000165   0.000025  -0.002361   0.475188  -0.002124   0.000000
    41  H    0.000000  -0.000002   0.000001  -0.002124   0.473430   0.000000
    42  H    0.000000   0.000000   0.000000   0.000000   0.000000   0.239642
    43  O    0.000000   0.000000   0.000000   0.000000   0.000000   0.251278
    44  H    0.000000   0.000000   0.000000   0.000000   0.000000  -0.016314
             43         44
     1  N   -0.011053   0.000765
     2  N   -0.000198   0.000005
     3  N    0.000000   0.000000
     4  N    0.000000   0.000000
     5  N    0.000000   0.000000
     6  N    0.000000   0.000000
     7  C   -0.000299  -0.000022
     8  C   -0.000314   0.000013
     9  C    0.000322  -0.000019
    10  C   -0.000014   0.000001
    11  C    0.000000   0.000000
    12  C    0.000000   0.000000
    13  C    0.000000   0.000000
    14  C    0.000000   0.000000
    15  C    0.000000   0.000000
    16  C    0.000000   0.000000
    17  C    0.000000   0.000000
    18  C    0.000000   0.000000
    19  C    0.000000   0.000000
    20  C    0.000000   0.000000
    21  C    0.000000   0.000000
    22  C    0.000000   0.000000
    23  S   -0.000034   0.000002
    24  H    0.000006  -0.000001
    25  H    0.002495   0.000240
    26  H   -0.000017   0.000000
    27  H    0.000000   0.000000
    28  H    0.001979  -0.000046
    29  H    0.000000   0.000000
    30  H    0.000000   0.000000
    31  H    0.000000   0.000000
    32  H    0.000000   0.000000
    33  H    0.000000   0.000000
    34  H    0.000000   0.000000
    35  H    0.000000   0.000000
    36  H    0.000000   0.000000
    37  H    0.000000   0.000000
    38  H    0.000000   0.000000
    39  H    0.000000   0.000000
    40  H    0.000000   0.000000
    41  H    0.000000   0.000000
    42  H    0.251278  -0.016314
    43  O    8.427673   0.266779
    44  H    0.266779   0.327228
 Mulliken atomic charges:
              1
     1  N   -0.648551
     2  N   -0.889434
     3  N   -0.625366
     4  N   -0.912816
     5  N   -0.668677
     6  N   -0.684346
     7  C   -0.491848
     8  C    0.368199
     9  C    0.407886
    10  C   -0.400421
    11  C    0.425094
    12  C   -0.369550
    13  C    0.123139
    14  C    0.862620
    15  C    0.285597
    16  C   -0.165299
    17  C   -0.283086
    18  C    0.388408
    19  C   -0.290684
    20  C   -0.289652
    21  C   -0.279987
    22  C   -0.197883
    23  S    0.279745
    24  H    0.212308
    25  H    0.177896
    26  H    0.200214
    27  H    0.391387
    28  H    0.406340
    29  H    0.399656
    30  H    0.221193
    31  H    0.213157
    32  H    0.217571
    33  H    0.206548
    34  H    0.175264
    35  H    0.179405
    36  H    0.157759
    37  H    0.175861
    38  H    0.156551
    39  H    0.177182
    40  H    0.204631
    41  H    0.205836
    42  H    0.495391
    43  O   -0.938604
    44  H    0.421368
 Sum of Mulliken atomic charges =   0.00000
 Mulliken charges with hydrogens summed into heavy atoms:
              1
     1  N   -0.648551
     2  N   -0.091708
     3  N   -0.625366
     4  N   -0.513161
     5  N   -0.668677
     6  N   -0.684346
     7  C    0.098569
     8  C    0.368199
     9  C    0.407886
    10  C   -0.400421
    11  C    0.425094
    12  C   -0.148357
    13  C    0.336297
    14  C    0.862620
    15  C    0.285597
    16  C    0.052271
    17  C   -0.076538
    18  C    0.388408
    19  C    0.221744
    20  C    0.219942
    21  C   -0.075355
    22  C    0.007953
    23  S    0.279745
    43  O   -0.021845
 Sum of Mulliken charges with hydrogens summed into heavy atoms =   0.00000
 Electronic spatial extent (au):  <R**2>=          11719.6682
 Charge=              0.0000 electrons
 Dipole moment (field-independent basis, Debye):
    X=             -0.3468    Y=              0.5661    Z=              0.2255  Tot=              0.7011
 Quadrupole moment (field-independent basis, Debye-Ang):
   XX=           -107.9038   YY=           -161.2968   ZZ=           -143.8274
   XY=             -0.7621   XZ=             -6.6988   YZ=             -3.5978
 Traceless Quadrupole moment (field-independent basis, Debye-Ang):
   XX=             29.7722   YY=            -23.6208   ZZ=             -6.1514
   XY=             -0.7621   XZ=             -6.6988   YZ=             -3.5978
 Octapole moment (field-independent basis, Debye-Ang**2):
  XXX=              7.6794  YYY=            204.9916  ZZZ=             11.0619  XYY=              9.3739
  XXY=            -55.1144  XXZ=             36.4283  XZZ=             20.9611  YZZ=              4.1546
  YYZ=             -0.4163  XYZ=             -0.9806
 Hexadecapole moment (field-independent basis, Debye-Ang**3):
 XXXX=          -9130.3881 YYYY=          -5186.7328 ZZZZ=           -523.7405 XXXY=            -87.7015
 XXXZ=           -420.7235 YYYX=           -332.2686 YYYZ=            -91.3780 ZZZX=            -42.5012
 ZZZY=            -67.1278 XXYY=          -2089.0639 XXZZ=          -1842.3280 YYZZ=           -710.5221
 XXYZ=           -207.6301 YYXZ=            -30.2525 ZZXY=            -18.7950
 N-N= 2.116891310721D+03 E-N=-7.562034843657D+03  KE= 1.415208101879D+03
 1\1\GINC-B41\FOpt\RHF\6-31G(d)\C16H20N6O1S1\RUPAKHETIC\28-Mar-2018\1\\
 #HF/6-31G* nosymm SCF=Tight opt=(Z-MATRIX,MaxCycle=200)\\Mol-Water Dim
 er\\0,1\N,0,-3.01331,-2.51155,-0.41219\N,0,-5.22756,-3.08025,0.01776\N
 ,0,-0.97817,3.56035,0.13129\N,0,1.03999,2.52808,0.16831\N,0,4.96579,-1
 .51547,-0.0087\N,0,-0.84043,1.19804,0.0407\C,0,-0.7616,-1.67732,-0.873
 75\C,0,-2.17855,-1.41595,-0.45381\C,0,-4.20008,-2.18855,-0.05691\C,0,-
 2.74326,-0.23257,-0.11111\C,0,-2.16161,1.10984,-0.02969\C,0,-2.95851,2
 .25384,-0.0187\C,0,-2.28736,3.45662,0.06768\C,0,-0.31018,2.40783,0.107
 02\C,0,2.00032,1.48794,0.11857\C,0,2.04918,0.49089,1.08054\C,0,3.01909
 ,-0.49053,1.0434\C,0,4.00146,-0.50964,0.04361\C,0,5.18471,-2.31613,1.1
 765\C,0,6.11511,-1.31633,-0.86371\C,0,3.95701,0.51458,-0.90628\C,0,2.9
 6534,1.47999,-0.87153\S,0,-4.44477,-0.50304,0.26866\H,0,-0.3237,-0.829
 86,-1.37539\H,0,-0.74791,-2.54516,-1.52064\H,0,-0.14764,-1.89114,-0.00
 521\H,0,-5.97008,-2.88098,0.65016\H,0,-4.93488,-4.03367,0.00875\H,0,1.
 36351,3.46879,0.16814\H,0,-4.02699,2.21893,-0.09266\H,0,-2.83523,4.383
 64,0.08106\H,0,1.31685,0.47914,1.86562\H,0,3.00679,-1.23797,1.81091\H,
 0,5.96939,-3.03215,0.97745\H,0,4.29634,-2.88014,1.43166\H,0,5.47495,-1
 .72296,2.04398\H,0,6.75956,-2.18123,-0.79487\H,0,6.69756,-0.43358,-0.5
 979\H,0,5.81297,-1.22539,-1.89952\H,0,4.68426,0.56815,-1.69104\H,0,2.9
 501,2.24274,-1.6304\X,0,-3.44234,-1.11268,-0.08188\X,0,-2.64487,-2.737
 71,1.02416\H,1,roh,43,90.,42,180.,0\X,44,1.5,1,90.,43,0.,0\O,44,0.9474
 ,45,90.,43,180.,0\H,46,0.9474,44,105.5395,45,phi,0\\roh=2.08333102\phi
 =-169.48214516\\Version=EM64L-G09RevA.02\HF=-1416.5987875\RMSD=8.097e-
 09\RMSF=1.371e-03\Dipole=-0.1364409,0.2227253,0.0887256\Quadrupole=22.
 1348911,-17.5614972,-4.5733939,-0.5665656,-4.9804017,-2.6749015\PG=C01
  [X(C16H20N6O1S1)]\\@


 SILVERMAN'S PARADOX - IF MURPHY'S LAW CAN GO WRONG, IT WILL.
 Job cpu time:  0 days  0 hours 36 minutes 17.6 seconds.
 File lengths (MBytes):  RWF=    105 Int=      0 D2E=      0 Chk=     10 Scr=      1
 Normal termination of Gaussian 09 at Wed Mar 28 15:52:29 2018.
