 Entering Gaussian System, Link 0=/homes/huanglei/prog/g09/g09
 Initial command:
 /homes/huanglei/prog/g09/l1.exe /scratch/1867310.bmgt1.lcrc.anl.gov/2/Gau-19822.inp -scrdir=/scratch/1867310.bmgt1.lcrc.anl.gov/2/
 Entering Link 1 = /homes/huanglei/prog/g09/l1.exe PID=     19824.
  
 Copyright (c) 1988,1990,1992,1993,1995,1998,2003,2009, Gaussian, Inc.
                  All Rights Reserved.
  
 This is part of the Gaussian(R) 09 program.  It is based on
 the Gaussian(R) 03 system (copyright 2003, Gaussian, Inc.),
 the Gaussian(R) 98 system (copyright 1998, Gaussian, Inc.),
 the Gaussian(R) 94 system (copyright 1995, Gaussian, Inc.),
 the Gaussian 92(TM) system (copyright 1992, Gaussian, Inc.),
 the Gaussian 90(TM) system (copyright 1990, Gaussian, Inc.),
 the Gaussian 88(TM) system (copyright 1988, Gaussian, Inc.),
 the Gaussian 86(TM) system (copyright 1986, Carnegie Mellon
 University), and the Gaussian 82(TM) system (copyright 1983,
 Carnegie Mellon University). Gaussian is a federally registered
 trademark of Gaussian, Inc.
  
 This software contains proprietary and confidential information,
 including trade secrets, belonging to Gaussian, Inc.
  
 This software is provided under written license and may be
 used, copied, transmitted, or stored only in accord with that
 written license.
  
 The following legend is applicable only to US Government
 contracts under FAR:
  
                    RESTRICTED RIGHTS LEGEND
  
 Use, reproduction and disclosure by the US Government is
 subject to restrictions as set forth in subparagraphs (a)
 and (c) of the Commercial Computer Software - Restricted
 Rights clause in FAR 52.227-19.
  
 Gaussian, Inc.
 340 Quinnipiac St., Bldg. 40, Wallingford CT 06492
  
  
 ---------------------------------------------------------------
 Warning -- This program may not be used in any manner that
 competes with the business of Gaussian, Inc. or will provide
 assistance to any competitor of Gaussian, Inc.  The licensee
 of this program is prohibited from giving any competitor of
 Gaussian, Inc. access to this program.  By using this program,
 the user acknowledges that Gaussian, Inc. is engaged in the
 business of creating and licensing software in the field of
 computational chemistry and represents and warrants to the
 licensee that it is not a competitor of Gaussian, Inc. and that
 it will not use this program in any manner prohibited above.
 ---------------------------------------------------------------
  

 Cite this work as:
 Gaussian 09, Revision A.02,
 M. J. Frisch, G. W. Trucks, H. B. Schlegel, G. E. Scuseria, 
 M. A. Robb, J. R. Cheeseman, G. Scalmani, V. Barone, B. Mennucci, 
 G. A. Petersson, H. Nakatsuji, M. Caricato, X. Li, H. P. Hratchian, 
 A. F. Izmaylov, J. Bloino, G. Zheng, J. L. Sonnenberg, M. Hada, 
 M. Ehara, K. Toyota, R. Fukuda, J. Hasegawa, M. Ishida, T. Nakajima, 
 Y. Honda, O. Kitao, H. Nakai, T. Vreven, J. A. Montgomery, Jr., 
 J. E. Peralta, F. Ogliaro, M. Bearpark, J. J. Heyd, E. Brothers, 
 K. N. Kudin, V. N. Staroverov, R. Kobayashi, J. Normand, 
 K. Raghavachari, A. Rendell, J. C. Burant, S. S. Iyengar, J. Tomasi, 
 M. Cossi, N. Rega, J. M. Millam, M. Klene, J. E. Knox, J. B. Cross, 
 V. Bakken, C. Adamo, J. Jaramillo, R. Gomperts, R. E. Stratmann, 
 O. Yazyev, A. J. Austin, R. Cammi, C. Pomelli, J. W. Ochterski, 
 R. L. Martin, K. Morokuma, V. G. Zakrzewski, G. A. Voth, 
 P. Salvador, J. J. Dannenberg, S. Dapprich, A. D. Daniels, 
 O. Farkas, J. B. Foresman, J. V. Ortiz, J. Cioslowski, 
 and D. J. Fox, Gaussian, Inc., Wallingford CT, 2009.
 
 ******************************************
 Gaussian 09:  EM64L-G09RevA.02 11-Jun-2009
                28-Mar-2018 
 ******************************************
 %mem=5GB
 %nproc=3
 Will use up to    3 processors via shared memory.
 -------------------------------------------------------
 #HF/6-31G* nosymm SCF=Tight opt=(Z-MATRIX,MaxCycle=200)
 -------------------------------------------------------
 1/6=200,10=7,18=40,38=1/1,3;
 2/12=2,15=1,17=6,18=5,29=3,40=1/2;
 3/5=1,6=6,7=1,11=9,16=1,25=1,30=1,71=1/1,2,3;
 4//1;
 5/5=2,32=2,38=5/2;
 6/7=2,8=2,9=2,10=2,28=1/1;
 7/29=1,30=1/1,2,3,16;
 1/6=200,10=7,18=40/3(2);
 2/15=1,29=3/2;
 99//99;
 2/15=1,29=3/2;
 3/5=1,6=6,7=1,11=9,16=1,25=1,30=1,71=1/1,2,3;
 4/5=5,16=3/1;
 5/5=2,32=2,38=5/2;
 7/30=1/1,2,3,16;
 1/6=200,18=40/3(-5);
 2/15=1,29=3/2;
 6/7=2,8=2,9=2,10=2,19=2,28=1/1;
 99/9=1/99;
 ---------------
 Mol-Water Dimer
 ---------------
 Symbolic Z-matrix:
 Charge =  0 Multiplicity = 1
 N                    -3.01331  -2.51155  -0.41219 
 N                    -5.22756  -3.08025   0.01776 
 N99                  -0.97817   3.56035   0.13129 
 N                     1.03999   2.52808   0.16831 
 N                     4.96579  -1.51547  -0.0087 
 N                    -0.84043   1.19804   0.0407 
 C                    -0.7616   -1.67732  -0.87375 
 C                    -2.17855  -1.41595  -0.45381 
 C                    -4.20008  -2.18855  -0.05691 
 C                    -2.74326  -0.23257  -0.11111 
 C                    -2.16161   1.10984  -0.02969 
 C                    -2.95851   2.25384  -0.0187 
 C                    -2.28736   3.45662   0.06768 
 C                    -0.31018   2.40783   0.10702 
 C                     2.00032   1.48794   0.11857 
 C                     2.04918   0.49089   1.08054 
 C                     3.01909  -0.49053   1.0434 
 C                     4.00146  -0.50964   0.04361 
 C                     5.18471  -2.31613   1.1765 
 C                     6.11511  -1.31633  -0.86371 
 C                     3.95701   0.51458  -0.90628 
 C                     2.96534   1.47999  -0.87153 
 S                    -4.44477  -0.50304   0.26866 
 H                    -0.3237   -0.82986  -1.37539 
 H                    -0.74791  -2.54516  -1.52064 
 H                    -0.14764  -1.89114  -0.00521 
 H                    -5.97008  -2.88098   0.65016 
 H                    -4.93488  -4.03367   0.00875 
 H                     1.36351   3.46879   0.16814 
 H                    -4.02699   2.21893  -0.09266 
 H                    -2.83523   4.38364   0.08106 
 H                     1.31685   0.47914   1.86562 
 H                     3.00679  -1.23797   1.81091 
 H                     5.96939  -3.03215   0.97745 
 H                     4.29634  -2.88014   1.43166 
 H                     5.47495  -1.72296   2.04398 
 H                     6.75956  -2.18123  -0.79487 
 H                     6.69756  -0.43358  -0.5979 
 H                     5.81297  -1.22539  -1.89952 
 H                     4.68426   0.56815  -1.69104 
 H                     2.9501    2.24274  -1.6304 
 X1                   -1.67271   2.23413   0.03772 
 X2                   -1.04532   3.48991   1.62813 
 H1W                  N99  roh      X2    90.      X1    180.     0
 X3                   H1W   1.5      N99   90.      X2    0.       0
 O1W                  H1W   0.9474   X3    90.      X2    180.     0
 H2W                  O1W   0.9474   H1W   105.5395  X3   phi      0
       Variables:
  roh                   1.9323                   
  phi                 309.72198                  
 

 GradGradGradGradGradGradGradGradGradGradGradGradGradGradGradGradGradGrad
 Berny optimization.
 Initialization pass.
                       ----------------------------
                       !    Initial Parameters    !
                       ! (Angstroms and Degrees)  !
 ----------------------                            ----------------------
 !      Name          Value   Derivative information (Atomic Units)     !
 ------------------------------------------------------------------------
 !       roh         1.9323   estimate D2E/DX2                          !
 !       phi       309.722    estimate D2E/DX2                          !
 ------------------------------------------------------------------------
 Trust Radius=3.00D-01 FncErr=1.00D-07 GrdErr=1.00D-07
 Number of steps in this run= 100 maximum allowed number of steps= 100.
 GradGradGradGradGradGradGradGradGradGradGradGradGradGradGradGradGradGrad

 ---------------------------------------------------------------------------------------------------
                            Z-MATRIX (ANGSTROMS AND DEGREES)
   CD    Cent   Atom    N1       Length/X        N2       Alpha/Y        N3        Beta/Z          J
 ---------------------------------------------------------------------------------------------------
      1      1  N        0  -3.013310         -2.511550         -0.412190
      2      2  N        0  -5.227560         -3.080250          0.017760
      3      3  N        0  -0.978170          3.560350          0.131290
      4      4  N        0   1.039990          2.528080          0.168310
      5      5  N        0   4.965790         -1.515470         -0.008700
      6      6  N        0  -0.840430          1.198040          0.040700
      7      7  C        0  -0.761600         -1.677320         -0.873750
      8      8  C        0  -2.178550         -1.415950         -0.453810
      9      9  C        0  -4.200080         -2.188550         -0.056910
     10     10  C        0  -2.743260         -0.232570         -0.111110
     11     11  C        0  -2.161610          1.109840         -0.029690
     12     12  C        0  -2.958510          2.253840         -0.018700
     13     13  C        0  -2.287360          3.456620          0.067680
     14     14  C        0  -0.310180          2.407830          0.107020
     15     15  C        0   2.000320          1.487940          0.118570
     16     16  C        0   2.049180          0.490890          1.080540
     17     17  C        0   3.019090         -0.490530          1.043400
     18     18  C        0   4.001460         -0.509640          0.043610
     19     19  C        0   5.184710         -2.316130          1.176500
     20     20  C        0   6.115110         -1.316330         -0.863710
     21     21  C        0   3.957010          0.514580         -0.906280
     22     22  C        0   2.965340          1.479990         -0.871530
     23     23  S        0  -4.444770         -0.503040          0.268660
     24     24  H        0  -0.323700         -0.829860         -1.375390
     25     25  H        0  -0.747910         -2.545160         -1.520640
     26     26  H        0  -0.147640         -1.891140         -0.005210
     27     27  H        0  -5.970080         -2.880980          0.650160
     28     28  H        0  -4.934880         -4.033670          0.008750
     29     29  H        0   1.363510          3.468790          0.168140
     30     30  H        0  -4.026990          2.218930         -0.092660
     31     31  H        0  -2.835230          4.383640          0.081060
     32     32  H        0   1.316850          0.479140          1.865620
     33     33  H        0   3.006790         -1.237970          1.810910
     34     34  H        0   5.969390         -3.032150          0.977450
     35     35  H        0   4.296340         -2.880140          1.431660
     36     36  H        0   5.474950         -1.722960          2.043980
     37     37  H        0   6.759560         -2.181230         -0.794870
     38     38  H        0   6.697560         -0.433580         -0.597900
     39     39  H        0   5.812970         -1.225390         -1.899520
     40     40  H        0   4.684260          0.568150         -1.691040
     41     41  H        0   2.950100          2.242740         -1.630400
     42         X        0  -1.672710          2.234130          0.037720
     43         X        0  -1.045320          3.489910          1.628130
     44     42  H        3   1.932300(    43)     43   90.000(    88)     42  180.000(   132)      0
     45         X       44   1.500000(    44)      3   90.000(    89)     43    0.000(   133)      0
     46     43  O       44   0.947400(    45)     45   90.000(    90)     43  180.000(   134)      0
     47     44  H       46   0.947400(    46)     44  105.540(    91)     45  309.722(   135)      0
 ---------------------------------------------------------------------------------------------------
                         Z-Matrix orientation:                         
 ---------------------------------------------------------------------
 Center     Atomic      Atomic             Coordinates (Angstroms)
 Number     Number       Type             X           Y           Z
 ---------------------------------------------------------------------
      1          7           0       -3.013310   -2.511550   -0.412190
      2          7           0       -5.227560   -3.080250    0.017760
      3          7           0       -0.978170    3.560350    0.131290
      4          7           0        1.039990    2.528080    0.168310
      5          7           0        4.965790   -1.515470   -0.008700
      6          7           0       -0.840430    1.198040    0.040700
      7          6           0       -0.761600   -1.677320   -0.873750
      8          6           0       -2.178550   -1.415950   -0.453810
      9          6           0       -4.200080   -2.188550   -0.056910
     10          6           0       -2.743260   -0.232570   -0.111110
     11          6           0       -2.161610    1.109840   -0.029690
     12          6           0       -2.958510    2.253840   -0.018700
     13          6           0       -2.287360    3.456620    0.067680
     14          6           0       -0.310180    2.407830    0.107020
     15          6           0        2.000320    1.487940    0.118570
     16          6           0        2.049180    0.490890    1.080540
     17          6           0        3.019090   -0.490530    1.043400
     18          6           0        4.001460   -0.509640    0.043610
     19          6           0        5.184710   -2.316130    1.176500
     20          6           0        6.115110   -1.316330   -0.863710
     21          6           0        3.957010    0.514580   -0.906280
     22          6           0        2.965340    1.479990   -0.871530
     23         16           0       -4.444770   -0.503040    0.268660
     24          1           0       -0.323700   -0.829860   -1.375390
     25          1           0       -0.747910   -2.545160   -1.520640
     26          1           0       -0.147640   -1.891140   -0.005210
     27          1           0       -5.970080   -2.880980    0.650160
     28          1           0       -4.934880   -4.033670    0.008750
     29          1           0        1.363510    3.468790    0.168140
     30          1           0       -4.026990    2.218930   -0.092660
     31          1           0       -2.835230    4.383640    0.081060
     32          1           0        1.316850    0.479140    1.865620
     33          1           0        3.006790   -1.237970    1.810910
     34          1           0        5.969390   -3.032150    0.977450
     35          1           0        4.296340   -2.880140    1.431660
     36          1           0        5.474950   -1.722960    2.043980
     37          1           0        6.759560   -2.181230   -0.794870
     38          1           0        6.697560   -0.433580   -0.597900
     39          1           0        5.812970   -1.225390   -1.899520
     40          1           0        4.684260    0.568150   -1.691040
     41          1           0        2.950100    2.242740   -1.630400
     42         -1           0       -1.672710    2.234130    0.037720
     43         -1           0       -1.045320    3.489910    1.628130
     44          1           0       -0.083464    5.268786    0.251825
     45         -1           0       -0.150614    5.198346    1.748665
     46          8           0        0.355208    6.106427    0.310923
     47          1           0       -0.174857    6.629789    0.896321
 ---------------------------------------------------------------------
                    Distance matrix (angstroms):
                    1          2          3          4          5
     1  N    0.000000
     2  N    2.326194   0.000000
     3  N    6.426907   7.884654   0.000000
     4  N    6.493388   8.411790   2.267140   0.000000
     5  N    8.051150  10.312789   7.817558   5.638576   0.000000
     6  N    4.322913   6.127903   2.368056   2.306788   6.409194
     7  C    2.445235   4.765270   5.337621   4.692228   5.794610
     8  C    1.378004   3.505529   5.152360   5.128490   7.158884
     9  C    1.280225   1.362505   6.592873   7.053769   9.190676
    10  C    2.314590   3.781221   4.190530   4.691721   7.815739
    11  C    3.739808   5.192221   2.726068   3.507257   7.595559
    12  C    4.781922   5.796761   2.377228   4.012254   8.775097
    13  C    6.031279   7.167841   1.314833   3.455947   8.794072
    14  C    5.637091   7.369370   1.332330   1.356899   6.575829
    15  C    6.435380   8.551068   3.628560   1.416545   4.222639
    16  C    6.072207   8.175175   4.414466   2.449647   3.703854
    17  C    6.526340   8.704357   5.763650   3.714112   2.438659
    18  C    7.309063   9.580371   6.431891   4.244243   1.394404
    19  C    8.352823  10.504376   8.579427   6.454574   1.446956
    20  C    9.217401  11.512800   8.665256   6.449914   1.446249
    21  C    7.614916   9.906209   5.891457   3.703773   2.438112
    22  C    7.203308   9.418611   4.569991   2.426259   3.703924
    23  S    2.558661   2.705129   5.342970   6.267404   9.468927
    24  H    3.315092   5.572519   4.687468   3.939343   5.506052
    25  H    2.522266   4.766577   6.329229   5.637987   5.999383
    26  H    2.960170   5.217288   5.516082   4.579310   5.127212
    27  H    3.163472   0.995477   8.165729   8.867423  11.040469
    28  H    2.487262   0.997373   8.563861   8.875871  10.215914
    29  H    7.433559   9.292725   2.343759   0.994787   6.152279
    30  H    4.848411   5.434599   3.338393   5.083106   9.737704
    31  H    6.915103   7.838170   2.031994   4.297446   9.780770
    32  H    5.734364   7.675490   4.215314   2.675008   4.561393
    33  H    6.542613   8.626349   6.459482   4.555170   2.688060
    34  H    9.104451  11.238105   9.614865   7.474614   2.068822
    35  H    7.547624   9.630360   8.425635   6.438067   2.094069
    36  H    8.871595  10.976863   8.556548   6.423266   2.125039
    37  H    9.785936  12.048222   9.679668   7.471198   2.068553
    38  H    9.932444  12.230797   8.683319   6.431688   2.125246
    39  H    9.042653  11.358247   8.552607   6.414499   2.092143
    40  H    8.388837  10.699299   6.658623   4.536432   2.692768
    41  H    7.723313   9.895695   4.502328   2.639185   4.562572
    42  X    4.951879   6.393746   1.500000   2.731703   7.624391
    43  X    6.637274   7.953076   1.500000   2.721160   7.991651
    44  H    8.340177   9.809328   1.932300   2.963207   8.461027
    45  X    8.503342   9.864410   2.446177   3.323459   8.622137
    46  O    9.281128  10.753989   2.879700   3.646071   8.913638
    47  H    9.660905  10.981190   3.263746   4.339339   9.674221
                    6          7          8          9         10
     6  N    0.000000
     7  C    3.018299   0.000000
     8  C    2.977927   1.500804   0.000000
     9  C    4.771349   3.570956   2.200233   0.000000
    10  C    2.385467   2.568248   1.355260   2.439492   0.000000
    11  C    1.325990   3.231211   2.561207   3.877561   1.465268
    12  C    2.367384   4.583835   3.776906   4.612785   2.497420
    13  C    2.682446   5.437975   4.901605   5.961708   3.721550
    14  C    1.322556   4.225416   4.292625   6.023695   3.597106
    15  C    2.856565   4.316454   5.120854   7.210571   5.051184
    16  C    3.151377   4.052267   4.885076   6.893942   4.991083
    17  C    4.330424   4.401994   5.487577   7.497358   5.882526
    18  C    5.134207   4.989165   6.265888   8.372222   6.752181
    19  C    7.066947   6.322199   7.595119   9.466354   8.297703
    20  C    7.451144   6.886186   8.304381  10.383392   8.956096
    21  C    4.937542   5.202957   6.448005   8.635187   6.788531
    22  C    3.923716   4.884536   5.917817   8.091047   6.008262
    23  S    3.992105   4.031101   2.547768   1.734016   1.764232
    24  H    2.526796   1.077770   2.152505   4.314018   2.794536
    25  H    4.056832   1.082497   2.111865   3.766584   3.363966
    26  H    3.166244   1.084909   2.133458   4.063668   3.082095
    27  H    6.582033   5.558720   4.211978   2.027882   4.243345
    28  H    6.643518   4.873136   3.829331   1.987136   4.389297
    29  H    3.167001   5.664281   6.065781   7.937864   5.535667
    30  H    3.348756   5.143310   4.093838   4.411022   2.767337
    31  H    3.758843   6.476638   5.861106   6.713831   4.621124
    32  H    2.915649   4.058870   4.603145   6.422555   4.571486
    33  H    4.885580   4.647708   5.661129   7.505420   6.145573
    34  H    8.071286   7.111170   8.429089  10.256690   9.215904
    35  H    6.704680   5.687218   6.900946   8.653513   7.677613
    36  H    7.240815   6.885477   8.056629   9.911444   8.625813
    37  H    8.359276   7.538435   8.977293  10.984459   9.724628
    38  H    7.738946   7.567169   8.931469  11.051296   9.455498
    39  H    7.342016   6.669439   8.123471  10.226635   8.797339
    40  H    5.823906   5.947057   7.250210   9.444643   7.635796
    41  H    4.272247   5.451248   6.408855   8.557878   6.391381
    42  X    1.328978   4.118293   3.717601   5.094767   2.693109
    43  X    2.795457   5.748058   5.448499   6.710945   4.445764
    44  H    4.145907   7.069313   7.040810   8.523715   6.121369
    45  X    4.404026   7.384115   7.260326   8.615365   6.298844
    46  O    5.059134   7.952196   7.974390   9.470617   7.068345
    47  H    5.538860   8.513840   8.400687   9.740337   7.396187
                   11         12         13         14         15
    11  C    0.000000
    12  C    1.394240   0.000000
    13  C    2.352163   1.380067   0.000000
    14  C    2.265229   2.655781   2.238470   0.000000
    15  C    4.181698   5.019506   4.718314   2.486914   0.000000
    16  C    4.398461   5.421557   5.350422   3.192018   1.386320
    17  C    5.527419   6.662682   6.685090   4.512354   2.409885
    18  C    6.372717   7.488784   7.435123   5.206332   2.828517
    19  C    8.195156   9.414094   9.507153   7.324848   5.072524
    20  C    8.665217   9.787274   9.708246   7.489729   5.075461
    21  C    6.209690   7.185906   6.971109   4.777037   2.413790
    22  C    5.208774   6.034746   5.690346   3.542242   1.382615
    23  S    2.811266   3.145144   4.513726   5.059064   6.747275
    24  H    2.991865   4.276919   4.930753   3.560949   3.606270
    25  H    4.192911   5.492993   6.396408   5.231921   5.148366
    26  H    3.614216   5.008196   5.760404   4.303505   4.005900
    27  H    5.558173   5.990267   7.353019   7.765371   9.104797
    28  H    5.843646   6.590870   7.944638   7.930349   8.865508
    29  H    4.246205   4.493425   3.652272   1.982577   2.081286
    30  H    2.171103   1.071605   2.141004   3.726960   6.075149
    31  H    3.344218   2.135696   1.076897   3.206303   5.636402
    32  H    4.011193   4.997892   5.008823   3.075670   2.130022
    33  H    5.967611   7.150176   7.287390   5.215112   3.362675
    34  H    9.180609  10.423119  10.540671   8.353684   6.076381
    35  H    7.730498   9.005229   9.239052   7.137039   5.106470
    36  H    8.404874   9.549494   9.538725   7.367698   5.107850
    37  H    9.539597  10.710423  10.694677   8.476680   6.078449
    38  H    9.010544  10.039790   9.813534   7.594665   5.125391
    39  H    8.517247   9.621922   9.560672   7.397260   5.096189
    40  H    7.065370   8.003137   7.748538   5.617995   3.365150
    41  H    5.474972   6.124490   5.638082   3.698014   2.128544
    42  X    1.227842   1.287188   1.368639   1.375304   3.748931
    43  X    3.107926   2.810732   1.994687   2.006266   3.944943
    44  H    4.657765   4.174803   2.859198   2.873576   4.319110
    45  X    4.891067   4.435987   3.228778   3.241518   4.588120
    46  O    5.605022   5.092328   3.750174   3.763501   4.906507
    47  H    5.939235   5.266395   3.901066   4.297237   5.636923
                   16         17         18         19         20
    16  C    0.000000
    17  C    1.380322   0.000000
    18  C    2.426454   1.401783   0.000000
    19  C    4.209527   2.835567   2.438632   0.000000
    20  C    4.855712   3.728854   2.437518   2.455138   0.000000
    21  C    2.754602   2.385622   1.397603   3.722652   2.830449
    22  C    2.372392   2.748235   2.422737   4.850831   4.211949
    23  S    6.619549   7.503971   8.449230   9.840648  10.651515
    24  H    3.661493   4.140040   4.563235   6.250098   6.477403
    25  H    4.879288   4.998609   5.398772   6.520966   7.003044
    26  H    3.417446   3.617937   4.373323   5.478231   6.347398
    27  H    8.709952   9.309891  10.267559  11.181477  12.279729
    28  H    8.390320   8.768693   9.606153  10.330522  11.412598
    29  H    3.189123   4.379868   4.775164   7.005973   6.822008
    30  H    6.425135   7.634072   8.480547  10.345673  10.768230
    31  H    6.325340   7.678326   8.407492  10.507442  10.653208
    32  H    1.073683   2.124600   3.391834   4.821697   5.804847
    33  H    2.106992   1.071396   2.154804   2.511621   4.101388
    34  H    5.271668   3.894670   3.332846   1.080754   2.520941
    35  H    4.066553   2.737216   2.762772   1.082781   3.319962
    36  H    4.191092   2.924259   2.764923   1.090235   3.004965
    37  H    5.731062   4.497646   3.332323   2.526787   1.080790
    38  H    5.027847   4.028430   2.772413   2.996866   1.090482
    39  H    5.098283   4.123901   2.751294   3.323601   1.082802
    40  H    3.825084   3.372055   2.153336   4.097842   2.506606
    41  H    3.351094   3.824229   3.388696   5.801333   4.824115
    42  X    4.240144   5.517984   6.302739   8.308182   8.606305
    43  X    4.343951   5.718850   6.631523   8.528033   8.976690
    44  H    5.297474   6.589549   7.079560   9.281144   9.112107
    45  X    5.238858   6.550400   7.261407   9.233656   9.408762
    46  O    5.915751   7.152107   7.559031   9.747450   9.468556
    47  H    6.531949   7.805246   8.315057  10.432302  10.286019
                   21         22         23         24         25
    21  C    0.000000
    22  C    1.384425   0.000000
    23  S    8.544351   7.755138   0.000000
    24  H    4.511326   4.050564   4.448925   0.000000
    25  H    5.645859   5.514653   4.586788   1.772937   0.000000
    26  H    4.842269   4.669654   4.524064   1.742041   1.756301
    27  H   10.606576  10.058595   2.850739   6.339681   5.665351
    28  H   10.029435   9.674131   3.573949   5.783012   4.699512
    29  H    4.075289   2.757190   7.037162   4.869040   6.593760
    30  H    8.204331   7.074274   2.777447   4.965367   5.957184
    31  H    7.879022   6.556312   5.148345   5.967379   7.411519
    32  H    3.828202   3.348315   6.058979   3.861221   4.987623
    33  H    3.370085   3.818967   7.644894   4.627227   5.187075
    34  H    4.491927   5.727342  10.740275   7.070284   7.183295
    35  H    4.135847   5.107541   9.132917   5.781691   5.854293
    36  H    4.001845   5.005720  10.150902   6.790733   7.218484
    37  H    3.890256   5.273188  11.379122   7.234347   7.551244
    38  H    2.916285   4.203105  11.176192   7.075282   7.793923
    39  H    2.731045   4.060153  10.509235   6.171700   6.703021
    40  H    1.071266   2.111335   9.398248   5.209005   6.263402
    41  H    2.127147   1.076059   8.113559   4.497073   6.050728
    42  X    5.961689   4.786123   3.902531   3.633833   5.111297
    43  X    6.348159   5.135511   5.417386   5.310582   6.813610
    44  H    6.345795   4.991203   7.234311   6.316568   8.039955
    45  X    6.771925   5.513689   7.289444   6.791830   8.426566
    46  O    6.761902   5.441958   8.168637   7.170540   8.911871
    47  H    7.597202   6.285424   8.336868   7.799307   9.505250
                   26         27         28         29         30
    26  H    0.000000
    27  H    5.942230   0.000000
    28  H    5.244835   1.676824   0.000000
    29  H    5.571577   9.712542   9.797042   0.000000
    30  H    5.652405   5.507855   6.318984   5.539644   0.000000
    31  H    6.826672   7.932582   8.675533   4.298133   2.477184
    32  H    3.356034   8.115855   7.930797   3.438259   5.951332
    33  H    3.698020   9.199512   8.610101   5.249062   8.065221
    34  H    6.299649  11.944912  10.992931   8.008204  11.342248
    35  H    4.774063  10.296122   9.411202   7.106820   9.879367
    36  H    5.986734  11.587599  10.855694   6.883094  10.506693
    37  H    6.958242  12.830491  11.867488   7.871942  11.670654
    38  H    7.023712  12.962119  12.191896   6.653375  11.059252
    39  H    6.289714  12.168899  11.271389   6.790305  10.580780
    40  H    5.677798  11.440834  10.797865   4.785148   9.009205
    41  H    5.415367  10.536749  10.210438   2.693550   7.144578
    42  X    4.398356   6.708712   7.065968   3.280248   2.357936
    43  X    5.694675   8.111592   8.622953   2.816821   3.669723
    44  H    7.164826  10.061293  10.494333   2.311000   4.997169
    45  X    7.303212  10.017406  10.542611   2.789623   5.224337
    46  O    8.019593  10.995355  11.441062   2.827400   5.871897
    47  H    8.568531  11.140015  11.711317   3.590088   5.939081
                   31         32         33         34         35
    31  H    0.000000
    32  H    5.972398   0.000000
    33  H    8.289999   2.409846   0.000000
    34  H   11.546376   5.896112   3.562406   0.000000
    35  H   10.268686   4.511147   2.122143   1.740261   0.000000
    36  H   10.497748   4.708593   2.526134   1.759527   1.761568
    37  H   11.658678   6.616560   4.665095   2.118856   3.393135
    38  H   10.702368   5.987823   4.480088   3.124824   3.983796
    39  H   10.496441   6.107110   4.652107   3.400854   4.016855
    40  H    8.616324   4.898694   4.282479   4.662034   4.668237
    41  H    6.401765   4.242634   4.895015   6.613733   6.118208
    42  X    2.444120   3.919015   6.090764   9.328370   7.983006
    43  X    2.529023   3.834186   6.229434   9.600355   8.315616
    44  H    2.895663   5.244609   7.370094  10.298986   9.326290
    45  X    3.263712   4.943484   7.169326  10.285441   9.227016
    46  O    3.633143   5.916772   7.951164  10.746017   9.876586
    47  H    3.575950   6.402750   8.535864  11.450389  10.522211
                   36         37         38         39         40
    36  H    0.000000
    37  H    3.149493   0.000000
    38  H    3.183835   1.759807   0.000000
    39  H    3.989113   1.740665   1.761726   0.000000
    40  H    4.452499   3.559365   2.500359   2.129375   0.000000
    41  H    5.966801   5.897593   4.719343   4.505150   2.411481
    42  X    8.412650   9.554674   8.808071   8.470926   6.795231
    43  X    8.358281   9.947307   8.961092   9.039608   7.237517
    44  H    9.110011  10.169822   8.900635   9.031641   6.971506
    45  X    8.924050  10.424885   9.171829   9.494102   7.526373
    46  O    9.513913  10.532035   9.155495   9.403657   7.308971
    47  H   10.149180  11.339326   9.967647  10.265215   8.188340
                   41         42         43         44         45
    41  H    0.000000
    42  X    4.914577   0.000000
    43  X    5.304416   2.121322   0.000000
    44  H    4.679983   3.432300   2.446177   0.000000
    45  X    5.456016   3.745756   1.932300   1.500000   0.000000
    46  O    5.042844   4.379700   3.246948   0.947400   1.774138
    47  H    5.949443   4.722560   3.339474   1.508660   1.666165
                   46         47
    46  O    0.000000
    47  H    0.947400   0.000000
 Symmetry turned off by external request.
 Stoichiometry    C16H20N6OS
 Framework group  C1[X(C16H20N6OS)]
 Deg. of freedom   126
 Full point group                 C1      NOp   1
 Rotational constants (GHZ):      0.2587358      0.1250127      0.0877810
 Standard basis: 6-31G(d) (6D, 7F)
 Integral buffers will be    131072 words long.
 Raffenetti 1 integral format.
 Two-electron integral symmetry is turned off.
   404 basis functions,   776 primitive gaussians,   404 cartesian basis functions
    91 alpha electrons       91 beta electrons
       nuclear repulsion energy      2116.7647990182 Hartrees.
 NAtoms=   44 NActive=   44 NUniq=   44 SFac= 7.50D-01 NAtFMM=   80 NAOKFM=F Big=F
 One-electron integrals computed using PRISM.
 NBasis=   404 RedAO= T  NBF=   404
 NBsUse=   404 1.00D-06 NBFU=   404
 Harris functional with IExCor=  205 diagonalized for initial guess.
 ExpMin= 1.17D-01 ExpMax= 2.19D+04 ExpMxC= 3.30D+03 IAcc=1 IRadAn=         1 AccDes= 0.00D+00
 HarFok:  IExCor=  205 AccDes= 0.00D+00 IRadAn=         1 IDoV= 1
 ScaDFX=  1.000000  1.000000  1.000000  1.000000
 FoFCou: FMM=F IPFlag=           0 FMFlag=      100000 FMFlg1=           0
         NFxFlg=           0 DoJE=T BraDBF=F KetDBF=T FulRan=T
         Omega=  0.000000  0.000000  1.000000  0.000000  0.000000 ICntrl=     500 IOpCl=  0
         NMat0=    1 NMatS0=    1 NMatT0=    0 NMatD0=    1 NMtDS0=    0 NMtDT0=    0
         I1Cent=           4 NGrid=           0.
 Symmetry not used in FoFCou.
 Requested convergence on RMS density matrix=1.00D-08 within 128 cycles.
 Requested convergence on MAX density matrix=1.00D-06.
 Requested convergence on             energy=1.00D-06.
 No special actions if energy rises.
 Integral accuracy reduced to 1.0D-05 until final iterations.
 Initial convergence to 1.0D-05 achieved.  Increase integral accuracy.
 SCF Done:  E(RHF) =  -1416.59761230     A.U. after   16 cycles
             Convg  =    0.5439D-08             -V/T =  2.0010

 **********************************************************************

            Population analysis using the SCF density.

 **********************************************************************

 Alpha  occ. eigenvalues --  -91.97776 -20.51535 -15.59782 -15.57930 -15.56900
 Alpha  occ. eigenvalues --  -15.56116 -15.55259 -15.55176 -11.35634 -11.35164
 Alpha  occ. eigenvalues --  -11.31260 -11.29584 -11.28539 -11.27180 -11.25630
 Alpha  occ. eigenvalues --  -11.25598 -11.25193 -11.25160 -11.22829 -11.22694
 Alpha  occ. eigenvalues --  -11.22558 -11.21832 -11.21806 -11.20852  -8.98916
 Alpha  occ. eigenvalues --   -6.67186  -6.67073  -6.66890  -1.34292  -1.31693
 Alpha  occ. eigenvalues --   -1.30914  -1.25545  -1.23650  -1.22064  -1.20376
 Alpha  occ. eigenvalues --   -1.13132  -1.08671  -1.04440  -1.03048  -1.01530
 Alpha  occ. eigenvalues --   -0.99869  -0.96953  -0.93644  -0.90448  -0.88662
 Alpha  occ. eigenvalues --   -0.86474  -0.82881  -0.80530  -0.78657  -0.77449
 Alpha  occ. eigenvalues --   -0.73511  -0.73288  -0.70084  -0.69683  -0.68659
 Alpha  occ. eigenvalues --   -0.67199  -0.66037  -0.65144  -0.64152  -0.63825
 Alpha  occ. eigenvalues --   -0.62051  -0.61200  -0.60331  -0.59729  -0.58581
 Alpha  occ. eigenvalues --   -0.58479  -0.57631  -0.56693  -0.55917  -0.55607
 Alpha  occ. eigenvalues --   -0.55251  -0.54049  -0.53631  -0.53028  -0.52680
 Alpha  occ. eigenvalues --   -0.50759  -0.49170  -0.48644  -0.47761  -0.47405
 Alpha  occ. eigenvalues --   -0.46157  -0.45107  -0.43088  -0.42751  -0.40676
 Alpha  occ. eigenvalues --   -0.39873  -0.38500  -0.33525  -0.33092  -0.29883
 Alpha  occ. eigenvalues --   -0.27091
 Alpha virt. eigenvalues --    0.08636   0.13773   0.14908   0.15384   0.16692
 Alpha virt. eigenvalues --    0.18941   0.22152   0.23078   0.23885   0.24413
 Alpha virt. eigenvalues --    0.26112   0.26305   0.27244   0.27573   0.27766
 Alpha virt. eigenvalues --    0.28729   0.29362   0.29840   0.31330   0.32383
 Alpha virt. eigenvalues --    0.32943   0.33298   0.33495   0.34527   0.34837
 Alpha virt. eigenvalues --    0.34923   0.35521   0.36287   0.38286   0.38881
 Alpha virt. eigenvalues --    0.39670   0.40069   0.40452   0.43231   0.43998
 Alpha virt. eigenvalues --    0.44709   0.45408   0.46758   0.47775   0.49768
 Alpha virt. eigenvalues --    0.50792   0.52156   0.52591   0.53280   0.54665
 Alpha virt. eigenvalues --    0.56856   0.57007   0.57443   0.58775   0.59643
 Alpha virt. eigenvalues --    0.61881   0.63476   0.67064   0.67675   0.68621
 Alpha virt. eigenvalues --    0.70034   0.70390   0.72375   0.73436   0.74016
 Alpha virt. eigenvalues --    0.74595   0.75250   0.76520   0.76766   0.77616
 Alpha virt. eigenvalues --    0.78442   0.79032   0.79191   0.79737   0.81380
 Alpha virt. eigenvalues --    0.82117   0.82377   0.83232   0.83983   0.84573
 Alpha virt. eigenvalues --    0.84739   0.85143   0.86463   0.86877   0.88425
 Alpha virt. eigenvalues --    0.89303   0.90277   0.91546   0.92209   0.93306
 Alpha virt. eigenvalues --    0.93673   0.93845   0.94722   0.95973   0.96301
 Alpha virt. eigenvalues --    0.97394   0.98265   0.99062   0.99366   1.00253
 Alpha virt. eigenvalues --    1.02822   1.03873   1.04126   1.05820   1.06219
 Alpha virt. eigenvalues --    1.06791   1.07702   1.08903   1.09608   1.10201
 Alpha virt. eigenvalues --    1.11381   1.11994   1.12491   1.12648   1.12905
 Alpha virt. eigenvalues --    1.13213   1.14120   1.14284   1.14907   1.15490
 Alpha virt. eigenvalues --    1.15545   1.16057   1.16290   1.17351   1.18065
 Alpha virt. eigenvalues --    1.18823   1.19008   1.19788   1.20421   1.20702
 Alpha virt. eigenvalues --    1.21186   1.21801   1.22276   1.23216   1.24392
 Alpha virt. eigenvalues --    1.24832   1.25633   1.26174   1.27991   1.28230
 Alpha virt. eigenvalues --    1.28595   1.28960   1.29944   1.30255   1.30909
 Alpha virt. eigenvalues --    1.31727   1.32752   1.33589   1.35035   1.36158
 Alpha virt. eigenvalues --    1.38078   1.40208   1.42406   1.43257   1.44787
 Alpha virt. eigenvalues --    1.44855   1.46093   1.47368   1.47595   1.48199
 Alpha virt. eigenvalues --    1.49313   1.50863   1.52299   1.54268   1.56791
 Alpha virt. eigenvalues --    1.59399   1.61848   1.62249   1.63494   1.64365
 Alpha virt. eigenvalues --    1.65640   1.66091   1.67114   1.70321   1.73616
 Alpha virt. eigenvalues --    1.74028   1.74605   1.75091   1.76344   1.76774
 Alpha virt. eigenvalues --    1.77555   1.78379   1.79142   1.80710   1.81011
 Alpha virt. eigenvalues --    1.83832   1.84763   1.85719   1.86257   1.89253
 Alpha virt. eigenvalues --    1.90140   1.92835   1.92982   2.00436   2.01993
 Alpha virt. eigenvalues --    2.03572   2.05902   2.07318   2.08094   2.10069
 Alpha virt. eigenvalues --    2.10296   2.10943   2.12422   2.13659   2.14370
 Alpha virt. eigenvalues --    2.15195   2.15325   2.17964   2.18983   2.21796
 Alpha virt. eigenvalues --    2.22129   2.22930   2.23530   2.24573   2.26089
 Alpha virt. eigenvalues --    2.26976   2.28050   2.29640   2.30468   2.32670
 Alpha virt. eigenvalues --    2.34856   2.35473   2.37358   2.39071   2.40265
 Alpha virt. eigenvalues --    2.41250   2.42696   2.45809   2.46894   2.47763
 Alpha virt. eigenvalues --    2.48420   2.49241   2.49853   2.50548   2.52202
 Alpha virt. eigenvalues --    2.54092   2.55142   2.57037   2.57231   2.58578
 Alpha virt. eigenvalues --    2.58757   2.59617   2.61503   2.63175   2.64372
 Alpha virt. eigenvalues --    2.64745   2.65807   2.66972   2.67959   2.69394
 Alpha virt. eigenvalues --    2.70833   2.73651   2.75569   2.77719   2.78434
 Alpha virt. eigenvalues --    2.78887   2.80567   2.82049   2.83613   2.85855
 Alpha virt. eigenvalues --    2.87132   2.87977   2.92966   2.94460   2.95077
 Alpha virt. eigenvalues --    2.95823   2.96468   2.98141   2.99447   3.00713
 Alpha virt. eigenvalues --    3.01291   3.02026   3.04607   3.06953   3.07795
 Alpha virt. eigenvalues --    3.09360   3.10771   3.13818   3.13957   3.15972
 Alpha virt. eigenvalues --    3.21010   3.23375   3.25603   3.27474   3.29466
 Alpha virt. eigenvalues --    3.34394   3.39946   3.40946   3.51912   3.58800
 Alpha virt. eigenvalues --    3.60583   3.72081   3.86379   3.86872   4.20353
 Alpha virt. eigenvalues --    4.26925   4.36706   4.46900   4.50994   4.51796
 Alpha virt. eigenvalues --    4.53762   4.55138   4.56514   4.57678   4.59275
 Alpha virt. eigenvalues --    4.65638   4.67678   4.70091   4.71393   4.77020
 Alpha virt. eigenvalues --    4.77470   4.79780   4.82250   4.82431   4.92230
 Alpha virt. eigenvalues --    4.95492   5.09146   5.22359
          Condensed to atoms (all electrons):
              1          2          3          4          5          6
     1  N    6.913528  -0.079699   0.000000   0.000000   0.000000   0.000005
     2  N   -0.079699   7.066985   0.000000   0.000000   0.000000   0.000000
     3  N    0.000000   0.000000   7.071360  -0.106800   0.000000  -0.091061
     4  N    0.000000   0.000000  -0.106800   7.380899   0.000000  -0.100243
     5  N    0.000000   0.000000   0.000000   0.000000   7.246689   0.000000
     6  N    0.000005   0.000000  -0.091061  -0.100243   0.000000   7.039414
     7  C   -0.062686  -0.000057  -0.000002   0.000019   0.000000  -0.012684
     8  C    0.434991   0.003460   0.000023  -0.000005   0.000000  -0.001969
     9  C    0.536729   0.307100   0.000000   0.000000   0.000000  -0.000022
    10  C   -0.089723   0.002453  -0.000056  -0.000157   0.000000  -0.085900
    11  C    0.004824  -0.000031  -0.028360   0.002215   0.000000   0.504815
    12  C   -0.000115   0.000000  -0.043989   0.000476   0.000000  -0.072782
    13  C    0.000001   0.000000   0.466949   0.002278   0.000000  -0.013834
    14  C   -0.000001   0.000000   0.469318   0.334115   0.000000   0.510219
    15  C    0.000000   0.000000   0.002531   0.193506   0.000143   0.001856
    16  C    0.000000   0.000000   0.000009  -0.049132   0.003556  -0.002857
    17  C    0.000000   0.000000   0.000000   0.004712  -0.060211  -0.000299
    18  C    0.000000   0.000000   0.000000   0.000194   0.291148   0.000020
    19  C    0.000000   0.000000   0.000000   0.000000   0.265550   0.000000
    20  C    0.000000   0.000000   0.000000   0.000000   0.266188   0.000000
    21  C    0.000000   0.000000   0.000000   0.004273  -0.060898  -0.000037
    22  C    0.000000   0.000000  -0.000124  -0.058341   0.003685  -0.000230
    23  S   -0.079869  -0.067820  -0.000001   0.000002   0.000000   0.002268
    24  H    0.002904   0.000001   0.000014  -0.000162   0.000000   0.002534
    25  H   -0.001041  -0.000016   0.000000  -0.000001   0.000000   0.000543
    26  H    0.000460   0.000000   0.000000   0.000002  -0.000004  -0.000009
    27  H    0.002436   0.330808   0.000000   0.000000   0.000000   0.000000
    28  H    0.004739   0.322169   0.000000   0.000000   0.000000   0.000000
    29  H    0.000000   0.000000   0.001770   0.321789   0.000000   0.002951
    30  H   -0.000005   0.000000   0.002501   0.000015   0.000000   0.002475
    31  H    0.000000   0.000000  -0.044692  -0.000055   0.000000  -0.000531
    32  H    0.000000   0.000000  -0.000022  -0.003467  -0.000070   0.001705
    33  H    0.000000   0.000000   0.000000  -0.000105  -0.003999  -0.000007
    34  H    0.000000   0.000000   0.000000   0.000000  -0.036783   0.000000
    35  H    0.000000   0.000000   0.000000   0.000000  -0.044660   0.000000
    36  H    0.000000   0.000000   0.000000   0.000000  -0.057525   0.000000
    37  H    0.000000   0.000000   0.000000   0.000000  -0.036883   0.000000
    38  H    0.000000   0.000000   0.000000   0.000000  -0.057851   0.000000
    39  H    0.000000   0.000000   0.000000   0.000000  -0.044531   0.000000
    40  H    0.000000   0.000000   0.000000  -0.000114  -0.004154   0.000000
    41  H    0.000000   0.000000  -0.000023   0.000126  -0.000072  -0.000024
    42  H    0.000000   0.000000   0.030595  -0.000066   0.000000   0.000194
    43  O    0.000000   0.000000  -0.020500  -0.000644   0.000000  -0.000007
    44  H    0.000000   0.000000   0.001349   0.000031   0.000000   0.000000
              7          8          9         10         11         12
     1  N   -0.062686   0.434991   0.536729  -0.089723   0.004824  -0.000115
     2  N   -0.000057   0.003460   0.307100   0.002453  -0.000031   0.000000
     3  N   -0.000002   0.000023   0.000000  -0.000056  -0.028360  -0.043989
     4  N    0.000019  -0.000005   0.000000  -0.000157   0.002215   0.000476
     5  N    0.000000   0.000000   0.000000   0.000000   0.000000   0.000000
     6  N   -0.012684  -0.001969  -0.000022  -0.085900   0.504815  -0.072782
     7  C    5.100272   0.354831   0.006444  -0.057097   0.000313   0.000106
     8  C    0.354831   4.560674  -0.087892   0.588854  -0.008959   0.002930
     9  C    0.006444  -0.087892   4.611489  -0.052552   0.002661  -0.000059
    10  C   -0.057097   0.588854  -0.052552   5.506442   0.368571  -0.073362
    11  C    0.000313  -0.008959   0.002661   0.368571   4.378092   0.503730
    12  C    0.000106   0.002930  -0.000059  -0.073362   0.503730   5.224955
    13  C    0.000001  -0.000095  -0.000003   0.003204  -0.043754   0.532170
    14  C   -0.000327   0.000077   0.000002   0.004724  -0.045865  -0.028136
    15  C   -0.000120  -0.000034   0.000000   0.000033   0.000073   0.000010
    16  C   -0.000435  -0.000007   0.000000   0.000062  -0.000168  -0.000005
    17  C   -0.000153   0.000010   0.000000   0.000002   0.000000   0.000000
    18  C   -0.000003   0.000001   0.000000   0.000000   0.000000   0.000000
    19  C    0.000000   0.000000   0.000000   0.000000   0.000000   0.000000
    20  C    0.000000   0.000000   0.000000   0.000000   0.000000   0.000000
    21  C    0.000003   0.000000   0.000000   0.000000   0.000000   0.000000
    22  C   -0.000040   0.000000   0.000000   0.000001  -0.000014  -0.000001
    23  S    0.002566  -0.082512   0.338036   0.273889  -0.042925   0.000097
    24  H    0.391736  -0.031125  -0.000128  -0.004339   0.000278   0.000076
    25  H    0.383296  -0.038906   0.000060   0.004275  -0.000275   0.000003
    26  H    0.387864  -0.034517  -0.000180  -0.003531   0.000930   0.000015
    27  H    0.000002  -0.000166  -0.026066   0.000046  -0.000001   0.000000
    28  H   -0.000020   0.000285  -0.023129  -0.000071   0.000000   0.000000
    29  H    0.000000   0.000000   0.000000   0.000005  -0.000061  -0.000032
    30  H   -0.000001   0.000020   0.000010  -0.001145  -0.024199   0.375240
    31  H    0.000000   0.000001   0.000000  -0.000068   0.002339  -0.046813
    32  H    0.000009   0.000001   0.000000  -0.000025  -0.000010   0.000008
    33  H    0.000000   0.000000   0.000000   0.000000   0.000000   0.000000
    34  H    0.000000   0.000000   0.000000   0.000000   0.000000   0.000000
    35  H    0.000000   0.000000   0.000000   0.000000   0.000000   0.000000
    36  H    0.000000   0.000000   0.000000   0.000000   0.000000   0.000000
    37  H    0.000000   0.000000   0.000000   0.000000   0.000000   0.000000
    38  H    0.000000   0.000000   0.000000   0.000000   0.000000   0.000000
    39  H    0.000000   0.000000   0.000000   0.000000   0.000000   0.000000
    40  H    0.000000   0.000000   0.000000   0.000000   0.000000   0.000000
    41  H    0.000000   0.000000   0.000000   0.000000   0.000000   0.000000
    42  H    0.000000   0.000000   0.000000   0.000000  -0.000013   0.000282
    43  O    0.000000   0.000000   0.000000   0.000000  -0.000001   0.000000
    44  H    0.000000   0.000000   0.000000   0.000000   0.000000   0.000005
             13         14         15         16         17         18
     1  N    0.000001  -0.000001   0.000000   0.000000   0.000000   0.000000
     2  N    0.000000   0.000000   0.000000   0.000000   0.000000   0.000000
     3  N    0.466949   0.469318   0.002531   0.000009   0.000000   0.000000
     4  N    0.002278   0.334115   0.193506  -0.049132   0.004712   0.000194
     5  N    0.000000   0.000000   0.000143   0.003556  -0.060211   0.291148
     6  N   -0.013834   0.510219   0.001856  -0.002857  -0.000299   0.000020
     7  C    0.000001  -0.000327  -0.000120  -0.000435  -0.000153  -0.000003
     8  C   -0.000095   0.000077  -0.000034  -0.000007   0.000010   0.000001
     9  C   -0.000003   0.000002   0.000000   0.000000   0.000000   0.000000
    10  C    0.003204   0.004724   0.000033   0.000062   0.000002   0.000000
    11  C   -0.043754  -0.045865   0.000073  -0.000168   0.000000   0.000000
    12  C    0.532170  -0.028136   0.000010  -0.000005   0.000000   0.000000
    13  C    4.595544  -0.072142  -0.000047   0.000000   0.000000   0.000000
    14  C   -0.072142   3.962123  -0.028186  -0.002001  -0.000056   0.000015
    15  C   -0.000047  -0.028186   4.557080   0.588316  -0.045796  -0.023485
    16  C    0.000000  -0.002001   0.588316   4.857455   0.532114  -0.032955
    17  C    0.000000  -0.000056  -0.045796   0.532114   5.023187   0.563335
    18  C    0.000000   0.000015  -0.023485  -0.032955   0.563335   4.420245
    19  C    0.000000   0.000000   0.000011  -0.000254  -0.009673  -0.046680
    20  C    0.000000   0.000000   0.000010  -0.000068   0.002408  -0.047358
    21  C    0.000000  -0.000036  -0.048927  -0.039859  -0.039645   0.574055
    22  C    0.000004   0.001339   0.591855  -0.046734  -0.041277  -0.033825
    23  S    0.000311  -0.000103   0.000000   0.000000   0.000000   0.000000
    24  H   -0.000006   0.000218   0.000759   0.000063  -0.000134  -0.000029
    25  H    0.000000   0.000016   0.000006   0.000021   0.000006   0.000000
    26  H    0.000000  -0.000123  -0.000053   0.000931   0.001126   0.000034
    27  H    0.000000   0.000000   0.000000   0.000000   0.000000   0.000000
    28  H    0.000000   0.000000   0.000000   0.000000   0.000000   0.000000
    29  H    0.000248  -0.023583  -0.019825   0.001732  -0.000014  -0.000002
    30  H   -0.022371   0.000529   0.000000   0.000000   0.000000   0.000000
    31  H    0.403096   0.004008   0.000003   0.000000   0.000000   0.000000
    32  H   -0.000002   0.002245  -0.024650   0.376607  -0.030378   0.001599
    33  H    0.000000  -0.000003   0.001671  -0.025911   0.380054  -0.030765
    34  H    0.000000   0.000000   0.000000   0.000007   0.000466   0.003338
    35  H    0.000000   0.000000  -0.000007   0.000157  -0.001275  -0.003452
    36  H    0.000000   0.000000  -0.000007  -0.000228   0.002155   0.002051
    37  H    0.000000   0.000000   0.000000   0.000002  -0.000052   0.003293
    38  H    0.000000   0.000000  -0.000005  -0.000018   0.000214   0.001986
    39  H    0.000000   0.000000  -0.000009   0.000006  -0.000061  -0.003262
    40  H    0.000000   0.000000   0.001757   0.000292   0.002799  -0.030136
    41  H    0.000000   0.000211  -0.032792   0.003247   0.000255   0.001600
    42  H   -0.001216  -0.000163  -0.000006  -0.000002   0.000000   0.000000
    43  O    0.000503  -0.000110   0.000009   0.000000   0.000000   0.000000
    44  H    0.000013  -0.000003   0.000000   0.000000   0.000000   0.000000
             19         20         21         22         23         24
     1  N    0.000000   0.000000   0.000000   0.000000  -0.079869   0.002904
     2  N    0.000000   0.000000   0.000000   0.000000  -0.067820   0.000001
     3  N    0.000000   0.000000   0.000000  -0.000124  -0.000001   0.000014
     4  N    0.000000   0.000000   0.004273  -0.058341   0.000002  -0.000162
     5  N    0.265550   0.266188  -0.060898   0.003685   0.000000   0.000000
     6  N    0.000000   0.000000  -0.000037  -0.000230   0.002268   0.002534
     7  C    0.000000   0.000000   0.000003  -0.000040   0.002566   0.391736
     8  C    0.000000   0.000000   0.000000   0.000000  -0.082512  -0.031125
     9  C    0.000000   0.000000   0.000000   0.000000   0.338036  -0.000128
    10  C    0.000000   0.000000   0.000000   0.000001   0.273889  -0.004339
    11  C    0.000000   0.000000   0.000000  -0.000014  -0.042925   0.000278
    12  C    0.000000   0.000000   0.000000  -0.000001   0.000097   0.000076
    13  C    0.000000   0.000000   0.000000   0.000004   0.000311  -0.000006
    14  C    0.000000   0.000000  -0.000036   0.001339  -0.000103   0.000218
    15  C    0.000011   0.000010  -0.048927   0.591855   0.000000   0.000759
    16  C   -0.000254  -0.000068  -0.039859  -0.046734   0.000000   0.000063
    17  C   -0.009673   0.002408  -0.039645  -0.041277   0.000000  -0.000134
    18  C   -0.046680  -0.047358   0.574055  -0.033825   0.000000  -0.000029
    19  C    4.932699  -0.051528   0.002280  -0.000075   0.000000   0.000000
    20  C   -0.051528   4.932809  -0.009799  -0.000280   0.000000   0.000000
    21  C    0.002280  -0.009799   5.012628   0.528546   0.000000   0.000013
    22  C   -0.000075  -0.000280   0.528546   4.897738   0.000000   0.000283
    23  S    0.000000   0.000000   0.000000   0.000000  15.384713   0.000097
    24  H    0.000000   0.000000   0.000013   0.000283   0.000097   0.473140
    25  H    0.000000   0.000000  -0.000001   0.000000  -0.000044  -0.023452
    26  H   -0.000001   0.000000  -0.000013  -0.000043   0.000025  -0.022501
    27  H    0.000000   0.000000   0.000000   0.000000   0.000267   0.000000
    28  H    0.000000   0.000000   0.000000   0.000000   0.003510   0.000000
    29  H    0.000000   0.000000   0.000056  -0.002076   0.000000   0.000001
    30  H    0.000000   0.000000   0.000000   0.000000   0.000346  -0.000001
    31  H    0.000000   0.000000   0.000000   0.000000  -0.000010   0.000000
    32  H   -0.000005   0.000002   0.000206   0.003506   0.000000  -0.000005
    33  H    0.000409  -0.000056   0.002775   0.000360   0.000000  -0.000001
    34  H    0.404107  -0.007460  -0.000048   0.000002   0.000000   0.000000
    35  H    0.404712   0.003926  -0.000090   0.000004   0.000000   0.000000
    36  H    0.391236   0.000710   0.000306  -0.000018   0.000000   0.000000
    37  H   -0.007479   0.404218   0.000489   0.000007   0.000000   0.000000
    38  H    0.000608   0.391308   0.002116  -0.000209   0.000000   0.000000
    39  H    0.003975   0.404618  -0.001038   0.000126   0.000000   0.000000
    40  H   -0.000059   0.000464   0.379684  -0.025718   0.000000   0.000000
    41  H    0.000002  -0.000004  -0.026722   0.376845   0.000000   0.000000
    42  H    0.000000   0.000000   0.000000  -0.000003   0.000000   0.000000
    43  O    0.000000   0.000000   0.000000  -0.000002   0.000000   0.000000
    44  H    0.000000   0.000000   0.000000   0.000000   0.000000   0.000000
             25         26         27         28         29         30
     1  N   -0.001041   0.000460   0.002436   0.004739   0.000000  -0.000005
     2  N   -0.000016   0.000000   0.330808   0.322169   0.000000   0.000000
     3  N    0.000000   0.000000   0.000000   0.000000   0.001770   0.002501
     4  N   -0.000001   0.000002   0.000000   0.000000   0.321789   0.000015
     5  N    0.000000  -0.000004   0.000000   0.000000   0.000000   0.000000
     6  N    0.000543  -0.000009   0.000000   0.000000   0.002951   0.002475
     7  C    0.383296   0.387864   0.000002  -0.000020   0.000000  -0.000001
     8  C   -0.038906  -0.034517  -0.000166   0.000285   0.000000   0.000020
     9  C    0.000060  -0.000180  -0.026066  -0.023129   0.000000   0.000010
    10  C    0.004275  -0.003531   0.000046  -0.000071   0.000005  -0.001145
    11  C   -0.000275   0.000930  -0.000001   0.000000  -0.000061  -0.024199
    12  C    0.000003   0.000015   0.000000   0.000000  -0.000032   0.375240
    13  C    0.000000   0.000000   0.000000   0.000000   0.000248  -0.022371
    14  C    0.000016  -0.000123   0.000000   0.000000  -0.023583   0.000529
    15  C    0.000006  -0.000053   0.000000   0.000000  -0.019825   0.000000
    16  C    0.000021   0.000931   0.000000   0.000000   0.001732   0.000000
    17  C    0.000006   0.001126   0.000000   0.000000  -0.000014   0.000000
    18  C    0.000000   0.000034   0.000000   0.000000  -0.000002   0.000000
    19  C    0.000000  -0.000001   0.000000   0.000000   0.000000   0.000000
    20  C    0.000000   0.000000   0.000000   0.000000   0.000000   0.000000
    21  C   -0.000001  -0.000013   0.000000   0.000000   0.000056   0.000000
    22  C    0.000000  -0.000043   0.000000   0.000000  -0.002076   0.000000
    23  S   -0.000044   0.000025   0.000267   0.003510   0.000000   0.000346
    24  H   -0.023452  -0.022501   0.000000   0.000000   0.000001  -0.000001
    25  H    0.515739  -0.025230   0.000000   0.000007   0.000000   0.000000
    26  H   -0.025230   0.501272   0.000000   0.000000   0.000000   0.000000
    27  H    0.000000   0.000000   0.321617  -0.016708   0.000000   0.000000
    28  H    0.000007   0.000000  -0.016708   0.311075   0.000000   0.000000
    29  H    0.000000   0.000000   0.000000   0.000000   0.294072   0.000000
    30  H    0.000000   0.000000   0.000000   0.000000   0.000000   0.439993
    31  H    0.000000   0.000000   0.000000   0.000000  -0.000022  -0.000091
    32  H    0.000000   0.000061   0.000000   0.000000  -0.000056   0.000000
    33  H    0.000000   0.000039   0.000000   0.000000   0.000002   0.000000
    34  H    0.000000   0.000000   0.000000   0.000000   0.000000   0.000000
    35  H    0.000000   0.000004   0.000000   0.000000   0.000000   0.000000
    36  H    0.000000   0.000000   0.000000   0.000000   0.000000   0.000000
    37  H    0.000000   0.000000   0.000000   0.000000   0.000000   0.000000
    38  H    0.000000   0.000000   0.000000   0.000000   0.000000   0.000000
    39  H    0.000000   0.000000   0.000000   0.000000   0.000000   0.000000
    40  H    0.000000   0.000000   0.000000   0.000000   0.000000   0.000000
    41  H    0.000000   0.000000   0.000000   0.000000   0.001125   0.000000
    42  H    0.000000   0.000000   0.000000   0.000000   0.001011  -0.000005
    43  O    0.000000   0.000000   0.000000   0.000000   0.005820   0.000000
    44  H    0.000000   0.000000   0.000000   0.000000  -0.000224   0.000000
             31         32         33         34         35         36
     1  N    0.000000   0.000000   0.000000   0.000000   0.000000   0.000000
     2  N    0.000000   0.000000   0.000000   0.000000   0.000000   0.000000
     3  N   -0.044692  -0.000022   0.000000   0.000000   0.000000   0.000000
     4  N   -0.000055  -0.003467  -0.000105   0.000000   0.000000   0.000000
     5  N    0.000000  -0.000070  -0.003999  -0.036783  -0.044660  -0.057525
     6  N   -0.000531   0.001705  -0.000007   0.000000   0.000000   0.000000
     7  C    0.000000   0.000009   0.000000   0.000000   0.000000   0.000000
     8  C    0.000001   0.000001   0.000000   0.000000   0.000000   0.000000
     9  C    0.000000   0.000000   0.000000   0.000000   0.000000   0.000000
    10  C   -0.000068  -0.000025   0.000000   0.000000   0.000000   0.000000
    11  C    0.002339  -0.000010   0.000000   0.000000   0.000000   0.000000
    12  C   -0.046813   0.000008   0.000000   0.000000   0.000000   0.000000
    13  C    0.403096  -0.000002   0.000000   0.000000   0.000000   0.000000
    14  C    0.004008   0.002245  -0.000003   0.000000   0.000000   0.000000
    15  C    0.000003  -0.024650   0.001671   0.000000  -0.000007  -0.000007
    16  C    0.000000   0.376607  -0.025911   0.000007   0.000157  -0.000228
    17  C    0.000000  -0.030378   0.380054   0.000466  -0.001275   0.002155
    18  C    0.000000   0.001599  -0.030765   0.003338  -0.003452   0.002051
    19  C    0.000000  -0.000005   0.000409   0.404107   0.404712   0.391236
    20  C    0.000000   0.000002  -0.000056  -0.007460   0.003926   0.000710
    21  C    0.000000   0.000206   0.002775  -0.000048  -0.000090   0.000306
    22  C    0.000000   0.003506   0.000360   0.000002   0.000004  -0.000018
    23  S   -0.000010   0.000000   0.000000   0.000000   0.000000   0.000000
    24  H    0.000000  -0.000005  -0.000001   0.000000   0.000000   0.000000
    25  H    0.000000   0.000000   0.000000   0.000000   0.000000   0.000000
    26  H    0.000000   0.000061   0.000039   0.000000   0.000004   0.000000
    27  H    0.000000   0.000000   0.000000   0.000000   0.000000   0.000000
    28  H    0.000000   0.000000   0.000000   0.000000   0.000000   0.000000
    29  H   -0.000022  -0.000056   0.000002   0.000000   0.000000   0.000000
    30  H   -0.000091   0.000000   0.000000   0.000000   0.000000   0.000000
    31  H    0.468467   0.000000   0.000000   0.000000   0.000000   0.000000
    32  H    0.000000   0.458533  -0.001923   0.000000   0.000000  -0.000002
    33  H    0.000000  -0.001923   0.474872   0.000162  -0.002099  -0.000152
    34  H    0.000000   0.000000   0.000162   0.515018  -0.025325  -0.030465
    35  H    0.000000   0.000000  -0.002099  -0.025325   0.535489  -0.044059
    36  H    0.000000  -0.000002  -0.000152  -0.030465  -0.044059   0.575314
    37  H    0.000000   0.000000   0.000000   0.001861   0.000250  -0.000066
    38  H    0.000000   0.000000   0.000004  -0.000051  -0.000356   0.002368
    39  H    0.000000   0.000000  -0.000001   0.000240   0.000018  -0.000353
    40  H    0.000000   0.000011  -0.000123   0.000000  -0.000003   0.000008
    41  H    0.000000  -0.000130   0.000012   0.000000   0.000000   0.000000
    42  H   -0.000644   0.000000   0.000000   0.000000   0.000000   0.000000
    43  O    0.000541   0.000000   0.000000   0.000000   0.000000   0.000000
    44  H    0.000007   0.000000   0.000000   0.000000   0.000000   0.000000
             37         38         39         40         41         42
     1  N    0.000000   0.000000   0.000000   0.000000   0.000000   0.000000
     2  N    0.000000   0.000000   0.000000   0.000000   0.000000   0.000000
     3  N    0.000000   0.000000   0.000000   0.000000  -0.000023   0.030595
     4  N    0.000000   0.000000   0.000000  -0.000114   0.000126  -0.000066
     5  N   -0.036883  -0.057851  -0.044531  -0.004154  -0.000072   0.000000
     6  N    0.000000   0.000000   0.000000   0.000000  -0.000024   0.000194
     7  C    0.000000   0.000000   0.000000   0.000000   0.000000   0.000000
     8  C    0.000000   0.000000   0.000000   0.000000   0.000000   0.000000
     9  C    0.000000   0.000000   0.000000   0.000000   0.000000   0.000000
    10  C    0.000000   0.000000   0.000000   0.000000   0.000000   0.000000
    11  C    0.000000   0.000000   0.000000   0.000000   0.000000  -0.000013
    12  C    0.000000   0.000000   0.000000   0.000000   0.000000   0.000282
    13  C    0.000000   0.000000   0.000000   0.000000   0.000000  -0.001216
    14  C    0.000000   0.000000   0.000000   0.000000   0.000211  -0.000163
    15  C    0.000000  -0.000005  -0.000009   0.001757  -0.032792  -0.000006
    16  C    0.000002  -0.000018   0.000006   0.000292   0.003247  -0.000002
    17  C   -0.000052   0.000214  -0.000061   0.002799   0.000255   0.000000
    18  C    0.003293   0.001986  -0.003262  -0.030136   0.001600   0.000000
    19  C   -0.007479   0.000608   0.003975  -0.000059   0.000002   0.000000
    20  C    0.404218   0.391308   0.404618   0.000464  -0.000004   0.000000
    21  C    0.000489   0.002116  -0.001038   0.379684  -0.026722   0.000000
    22  C    0.000007  -0.000209   0.000126  -0.025718   0.376845  -0.000003
    23  S    0.000000   0.000000   0.000000   0.000000   0.000000   0.000000
    24  H    0.000000   0.000000   0.000000   0.000000   0.000000   0.000000
    25  H    0.000000   0.000000   0.000000   0.000000   0.000000   0.000000
    26  H    0.000000   0.000000   0.000000   0.000000   0.000000   0.000000
    27  H    0.000000   0.000000   0.000000   0.000000   0.000000   0.000000
    28  H    0.000000   0.000000   0.000000   0.000000   0.000000   0.000000
    29  H    0.000000   0.000000   0.000000   0.000000   0.001125   0.001011
    30  H    0.000000   0.000000   0.000000   0.000000   0.000000  -0.000005
    31  H    0.000000   0.000000   0.000000   0.000000   0.000000  -0.000644
    32  H    0.000000   0.000000   0.000000   0.000011  -0.000130   0.000000
    33  H    0.000000   0.000004  -0.000001  -0.000123   0.000012   0.000000
    34  H    0.001861  -0.000051   0.000240   0.000000   0.000000   0.000000
    35  H    0.000250  -0.000356   0.000018  -0.000003   0.000000   0.000000
    36  H   -0.000066   0.002368  -0.000353   0.000008   0.000000   0.000000
    37  H    0.514736  -0.030910  -0.024878   0.000167   0.000000   0.000000
    38  H   -0.030910   0.576697  -0.044050   0.000011  -0.000002   0.000000
    39  H   -0.024878  -0.044050   0.533891  -0.002363   0.000001   0.000000
    40  H    0.000167   0.000011  -0.002363   0.473492  -0.002063   0.000000
    41  H    0.000000  -0.000002   0.000001  -0.002063   0.466542   0.000000
    42  H    0.000000   0.000000   0.000000   0.000000   0.000000   0.231865
    43  O    0.000000   0.000000   0.000000   0.000000  -0.000001   0.245497
    44  H    0.000000   0.000000   0.000000   0.000000   0.000000  -0.014242
             43         44
     1  N    0.000000   0.000000
     2  N    0.000000   0.000000
     3  N   -0.020500   0.001349
     4  N   -0.000644   0.000031
     5  N    0.000000   0.000000
     6  N   -0.000007   0.000000
     7  C    0.000000   0.000000
     8  C    0.000000   0.000000
     9  C    0.000000   0.000000
    10  C    0.000000   0.000000
    11  C   -0.000001   0.000000
    12  C    0.000000   0.000005
    13  C    0.000503   0.000013
    14  C   -0.000110  -0.000003
    15  C    0.000009   0.000000
    16  C    0.000000   0.000000
    17  C    0.000000   0.000000
    18  C    0.000000   0.000000
    19  C    0.000000   0.000000
    20  C    0.000000   0.000000
    21  C    0.000000   0.000000
    22  C   -0.000002   0.000000
    23  S    0.000000   0.000000
    24  H    0.000000   0.000000
    25  H    0.000000   0.000000
    26  H    0.000000   0.000000
    27  H    0.000000   0.000000
    28  H    0.000000   0.000000
    29  H    0.005820  -0.000224
    30  H    0.000000   0.000000
    31  H    0.000541   0.000007
    32  H    0.000000   0.000000
    33  H    0.000000   0.000000
    34  H    0.000000   0.000000
    35  H    0.000000   0.000000
    36  H    0.000000   0.000000
    37  H    0.000000   0.000000
    38  H    0.000000   0.000000
    39  H    0.000000   0.000000
    40  H    0.000000   0.000000
    41  H   -0.000001   0.000000
    42  H    0.245497  -0.014242
    43  O    8.452636   0.265799
    44  H    0.265799   0.329029
 Mulliken atomic charges:
              1
     1  N   -0.587477
     2  N   -0.885352
     3  N   -0.710790
     4  N   -0.925359
     5  N   -0.669317
     6  N   -0.686501
     7  C   -0.493837
     8  C    0.340030
     9  C    0.387501
    10  C   -0.384533
    11  C    0.425797
    12  C   -0.374810
    13  C    0.149147
    14  C    0.911679
    15  C    0.284322
    16  C   -0.163943
    17  C   -0.283822
    18  C    0.389040
    19  C   -0.289834
    20  C   -0.290109
    21  C   -0.280316
    22  C   -0.195290
    23  S    0.267157
    24  H    0.209768
    25  H    0.184995
    26  H    0.193439
    27  H    0.387764
    28  H    0.398143
    29  H    0.415313
    30  H    0.226691
    31  H    0.214463
    32  H    0.216250
    33  H    0.204785
    34  H    0.174931
    35  H    0.176766
    36  H    0.158726
    37  H    0.175246
    38  H    0.158139
    39  H    0.177670
    40  H    0.206048
    41  H    0.211870
    42  H    0.506914
    43  O   -0.949539
    44  H    0.418235
 Sum of Mulliken atomic charges =   0.00000
 Mulliken charges with hydrogens summed into heavy atoms:
              1
     1  N   -0.587477
     2  N   -0.099444
     3  N   -0.710790
     4  N   -0.510046
     5  N   -0.669317
     6  N   -0.686501
     7  C    0.094365
     8  C    0.340030
     9  C    0.387501
    10  C   -0.384533
    11  C    0.425797
    12  C   -0.148120
    13  C    0.363610
    14  C    0.911679
    15  C    0.284322
    16  C    0.052308
    17  C   -0.079037
    18  C    0.389040
    19  C    0.220589
    20  C    0.220947
    21  C   -0.074268
    22  C    0.016579
    23  S    0.267157
    43  O   -0.024390
 Sum of Mulliken charges with hydrogens summed into heavy atoms =   0.00000
 Electronic spatial extent (au):  <R**2>=          11842.0970
 Charge=              0.0000 electrons
 Dipole moment (field-independent basis, Debye):
    X=             -1.7722    Y=             -3.6293    Z=              2.1141  Tot=              4.5588
 Quadrupole moment (field-independent basis, Debye-Ang):
   XX=           -110.5895   YY=           -154.1161   ZZ=           -147.4996
   XY=             -9.2508   XZ=            -10.3438   YZ=             -2.3985
 Traceless Quadrupole moment (field-independent basis, Debye-Ang):
   XX=             26.8122   YY=            -16.7144   ZZ=            -10.0979
   XY=             -9.2508   XZ=            -10.3438   YZ=             -2.3985
 Octapole moment (field-independent basis, Debye-Ang**2):
  XXX=            -27.2637  YYY=           -250.2170  ZZZ=             -5.5998  XYY=           -114.4137
  XXY=           -135.4934  XXZ=             30.4072  XZZ=             14.5319  YZZ=            -41.0358
  YYZ=             56.0652  XYZ=              5.0164
 Hexadecapole moment (field-independent basis, Debye-Ang**3):
 XXXX=          -8994.6727 YYYY=          -5103.2760 ZZZZ=           -504.3484 XXXY=             95.6769
 XXXZ=           -383.5638 YYYX=           -316.6329 YYYZ=            191.9869 ZZZX=            -22.6402
 ZZZY=            -49.3044 XXYY=          -2085.7273 XXZZ=          -1826.2913 YYZZ=           -846.9048
 XXYZ=           -209.5298 YYXZ=           -105.2033 ZZXY=            -11.1385
 N-N= 2.116764799018D+03 E-N=-7.561818058775D+03  KE= 1.415231297396D+03
 Calling FoFJK, ICntrl=      2127 FMM=F ISym2X=0 I1Cent= 0 IOpClX= 0 NMat=1 NMatS=1 NMatT=0.
 -------------------------------------------------------------------
 Center     Atomic                   Forces (Hartrees/Bohr)
 Number     Number              X              Y              Z
 -------------------------------------------------------------------
      1        7           0.001212821    0.000727639   -0.000285140
      2        7           0.000858779    0.000645564    0.000217850
      3        7          -0.002981301   -0.003894852    0.000651636
      4        7          -0.005089813    0.001048549   -0.000211361
      5        7          -0.000422089    0.000367000    0.000114187
      6        7          -0.001867274    0.001560105   -0.000088189
      7        6          -0.000021311   -0.000039646   -0.000089621
      8        6           0.000436124   -0.001627343   -0.000180262
      9        6          -0.001187966   -0.000279939    0.000168962
     10        6          -0.000392167    0.001953407    0.000441620
     11        6           0.001533021   -0.003516759   -0.000206546
     12        6           0.000185728    0.004326902    0.000335531
     13        6          -0.006024822   -0.001679513   -0.000562423
     14        6           0.009348021   -0.003773722   -0.000132616
     15        6           0.000854152   -0.001382863    0.000188679
     16        6          -0.000150254    0.000313152   -0.000113362
     17        6          -0.000105606   -0.000089472    0.000102595
     18        6           0.000283979   -0.000314995    0.000072860
     19        6           0.000021222   -0.000030202    0.000105732
     20        6           0.000200947    0.000102739   -0.000149509
     21        6          -0.000316591    0.000128620   -0.000081070
     22        6          -0.000058896    0.000320497   -0.000471507
     23       16          -0.000366811    0.000144830    0.000015096
     24        1           0.000032351   -0.000011982   -0.000042009
     25        1          -0.000020838    0.000091574    0.000061357
     26        1          -0.000090013    0.000024632    0.000028855
     27        1          -0.000142471    0.000019845   -0.000078844
     28        1          -0.000017495   -0.000089239   -0.000089337
     29        1           0.002405495    0.000809011    0.000445265
     30        1           0.000231707    0.000261212    0.000001136
     31        1          -0.000086927   -0.000205202   -0.000201907
     32        1           0.000060779   -0.000042571    0.000147197
     33        1           0.000000649    0.000040029    0.000009973
     34        1          -0.000016563    0.000015796   -0.000000873
     35        1          -0.000008657   -0.000027072   -0.000002131
     36        1          -0.000005495   -0.000011779   -0.000048748
     37        1          -0.000023281    0.000002050    0.000002266
     38        1          -0.000057065   -0.000063507    0.000000608
     39        1           0.000002592   -0.000011812    0.000012152
     40        1          -0.000061235    0.000077847    0.000050150
     41        1           0.000097537    0.000045769    0.000164579
     42        1          -0.005583598   -0.005180699   -0.001497646
     43        8           0.005816035    0.009735209    0.001062504
     44        1           0.001516601   -0.000488807    0.000132310
 -------------------------------------------------------------------
 Cartesian Forces:  Max     0.009735209 RMS     0.001841483
 -----------------------------------------------------------------------------------------------
                       Internal Coordinate Forces (Hartree/Bohr or radian)
  Cent   Atom   N1       Length/X         N2         Alpha/Y        N3         Beta/Z          J
 -----------------------------------------------------------------------------------------------
      1  N            0.001213(     1)      0.000728(    48)     -0.000285(    95)
      2  N            0.000859(     2)      0.000646(    49)      0.000218(    96)
      3  N           -0.000875(     3)     -0.000646(    50)      0.000326(    97)
      4  N           -0.005090(     4)      0.001049(    51)     -0.000211(    98)
      5  N           -0.000422(     5)      0.000367(    52)      0.000114(    99)
      6  N           -0.001867(     6)      0.001560(    53)     -0.000088(   100)
      7  C           -0.000021(     7)     -0.000040(    54)     -0.000090(   101)
      8  C            0.000436(     8)     -0.001627(    55)     -0.000180(   102)
      9  C           -0.001188(     9)     -0.000280(    56)      0.000169(   103)
     10  C           -0.000392(    10)      0.001953(    57)      0.000442(   104)
     11  C            0.001533(    11)     -0.003517(    58)     -0.000207(   105)
     12  C            0.000186(    12)      0.004327(    59)      0.000336(   106)
     13  C           -0.006025(    13)     -0.001680(    60)     -0.000562(   107)
     14  C            0.009348(    14)     -0.003774(    61)     -0.000133(   108)
     15  C            0.000854(    15)     -0.001383(    62)      0.000189(   109)
     16  C           -0.000150(    16)      0.000313(    63)     -0.000113(   110)
     17  C           -0.000106(    17)     -0.000089(    64)      0.000103(   111)
     18  C            0.000284(    18)     -0.000315(    65)      0.000073(   112)
     19  C            0.000021(    19)     -0.000030(    66)      0.000106(   113)
     20  C            0.000201(    20)      0.000103(    67)     -0.000150(   114)
     21  C           -0.000317(    21)      0.000129(    68)     -0.000081(   115)
     22  C           -0.000059(    22)      0.000320(    69)     -0.000472(   116)
     23  S           -0.000367(    23)      0.000145(    70)      0.000015(   117)
     24  H            0.000032(    24)     -0.000012(    71)     -0.000042(   118)
     25  H           -0.000021(    25)      0.000092(    72)      0.000061(   119)
     26  H           -0.000090(    26)      0.000025(    73)      0.000029(   120)
     27  H           -0.000142(    27)      0.000020(    74)     -0.000079(   121)
     28  H           -0.000017(    28)     -0.000089(    75)     -0.000089(   122)
     29  H            0.002405(    29)      0.000809(    76)      0.000445(   123)
     30  H            0.000232(    30)      0.000261(    77)      0.000001(   124)
     31  H           -0.000087(    31)     -0.000205(    78)     -0.000202(   125)
     32  H            0.000061(    32)     -0.000043(    79)      0.000147(   126)
     33  H            0.000001(    33)      0.000040(    80)      0.000010(   127)
     34  H           -0.000017(    34)      0.000016(    81)     -0.000001(   128)
     35  H           -0.000009(    35)     -0.000027(    82)     -0.000002(   129)
     36  H           -0.000005(    36)     -0.000012(    83)     -0.000049(   130)
     37  H           -0.000023(    37)      0.000002(    84)      0.000002(   131)
     38  H           -0.000057(    38)     -0.000064(    85)      0.000001(   132)
     39  H            0.000003(    39)     -0.000012(    86)      0.000012(   133)
     40  H           -0.000061(    40)      0.000078(    87)      0.000050(   134)
     41  H            0.000098(    41)      0.000046(    88)      0.000165(   135)
         X           -0.001193(    42)      0.000626(    89)     -0.000024(   136)
         X            0.000836(    43)      0.000190(    90)      0.000046(   137)
     42  H        3   0.004386(    44)     43   0.001582(    91)     42   0.003820(   138)     0
         X       44   0.000000(    45)      3  -0.000505(    92)     43   0.005798(   139)     0
     43  O       44   0.011645(    46)     45  -0.000505(    93)     43   0.005087(   140)     0
     44  H       46  -0.001037(    47)     44   0.001033(    94)     45   0.001848(   141)     0
 -----------------------------------------------------------------------------------------------
 Internal  Forces:  Max     0.011644911 RMS     0.001829483

 GradGradGradGradGradGradGradGradGradGradGradGradGradGradGradGradGradGrad
 Berny optimization.
 Search for a local minimum.
 Step number   1 out of a maximum of  100
 All quantities printed in internal units (Hartrees-Bohrs-Radians)
 Second derivative matrix not updated -- first step.
 The second derivative matrix:
                          roh       phi
           roh          0.04827
           phi          0.00000   0.00000
     Eigenvalues ---    0.00000   0.04827
 RFO step:  Lambda=-2.04944015D-03 EMin=-1.06863174D-16
 Linear search not attempted -- first point.
 Maximum step size (   0.300) exceeded in Quadratic search.
    -- Step size scaled by   0.331
 Variable       Old X    -DE/DX   Delta X   Delta X   Delta X     New X
                                 (Linear)    (Quad)   (Total)
   roh        3.65152   0.00439   0.00000   0.02885   0.02885   3.68037
   phi        5.40567   0.00185   0.00000   0.29861   0.29861   5.70428
         Item               Value     Threshold  Converged?
 Maximum Force            0.004386     0.000450     NO 
 RMS     Force            0.003365     0.000300     NO 
 Maximum Displacement     0.298609     0.001800     NO 
 RMS     Displacement     0.212132     0.001200     NO 
 Predicted change in Energy=-6.584204D-04
 GradGradGradGradGradGradGradGradGradGradGradGradGradGradGradGradGradGrad

 ---------------------------------------------------------------------------------------------------
                            Z-MATRIX (ANGSTROMS AND DEGREES)
   CD    Cent   Atom    N1       Length/X        N2       Alpha/Y        N3        Beta/Z          J
 ---------------------------------------------------------------------------------------------------
      1      1  N        0  -3.013310         -2.511550         -0.412190
      2      2  N        0  -5.227560         -3.080250          0.017760
      3      3  N        0  -0.978170          3.560350          0.131290
      4      4  N        0   1.039990          2.528080          0.168310
      5      5  N        0   4.965790         -1.515470         -0.008700
      6      6  N        0  -0.840430          1.198040          0.040700
      7      7  C        0  -0.761600         -1.677320         -0.873750
      8      8  C        0  -2.178550         -1.415950         -0.453810
      9      9  C        0  -4.200080         -2.188550         -0.056910
     10     10  C        0  -2.743260         -0.232570         -0.111110
     11     11  C        0  -2.161610          1.109840         -0.029690
     12     12  C        0  -2.958510          2.253840         -0.018700
     13     13  C        0  -2.287360          3.456620          0.067680
     14     14  C        0  -0.310180          2.407830          0.107020
[...]
    10  C    0.000000   0.000000   0.000000   0.000001   0.274043  -0.004310
    11  C    0.000000   0.000000   0.000000  -0.000014  -0.042850   0.000273
    12  C    0.000000   0.000000   0.000000  -0.000001   0.000073   0.000075
    13  C    0.000000   0.000000   0.000000   0.000004   0.000310  -0.000006
    14  C    0.000000   0.000000  -0.000040   0.001431  -0.000104   0.000219
    15  C    0.000011   0.000010  -0.049010   0.591753   0.000000   0.000753
    16  C   -0.000254  -0.000068  -0.039892  -0.046770   0.000000   0.000061
    17  C   -0.009676   0.002409  -0.039616  -0.041307   0.000000  -0.000134
    18  C   -0.046689  -0.047359   0.573948  -0.033792   0.000000  -0.000029
    19  C    4.932819  -0.051527   0.002280  -0.000075   0.000000   0.000000
    20  C   -0.051527   4.932976  -0.009801  -0.000280   0.000000   0.000000
    21  C    0.002280  -0.009801   5.012907   0.528412   0.000000   0.000014
    22  C   -0.000075  -0.000280   0.528412   4.898434   0.000000   0.000281
    23  S    0.000000   0.000000   0.000000   0.000000  15.384485   0.000097
    24  H    0.000000   0.000000   0.000014   0.000281   0.000097   0.473236
    25  H    0.000000   0.000000  -0.000001   0.000000  -0.000044  -0.023446
    26  H   -0.000001   0.000000  -0.000013  -0.000043   0.000025  -0.022552
    27  H    0.000000   0.000000   0.000000   0.000000   0.000267   0.000000
    28  H    0.000000   0.000000   0.000000   0.000000   0.003509   0.000000
    29  H    0.000000   0.000000   0.000058  -0.002382   0.000000   0.000001
    30  H    0.000000   0.000000   0.000000   0.000000   0.000326  -0.000001
    31  H    0.000000   0.000000   0.000000   0.000000  -0.000011   0.000000
    32  H   -0.000005   0.000002   0.000204   0.003512   0.000000  -0.000005
    33  H    0.000417  -0.000056   0.002778   0.000357   0.000000  -0.000001
    34  H    0.404133  -0.007451  -0.000048   0.000002   0.000000   0.000000
    35  H    0.404733   0.003924  -0.000091   0.000004   0.000000   0.000000
    36  H    0.391169   0.000710   0.000307  -0.000018   0.000000   0.000000
    37  H   -0.007473   0.404236   0.000489   0.000007   0.000000   0.000000
    38  H    0.000606   0.391258   0.002119  -0.000210   0.000000   0.000000
    39  H    0.003973   0.404645  -0.001042   0.000127   0.000000   0.000000
    40  H   -0.000059   0.000469   0.379669  -0.025706   0.000000   0.000000
    41  H    0.000002  -0.000004  -0.026696   0.376883   0.000000   0.000000
    42  H    0.000000   0.000000   0.000000  -0.000002   0.000000   0.000000
    43  O    0.000000   0.000000   0.000000  -0.000002   0.000000   0.000000
    44  H    0.000000   0.000000   0.000000   0.000000   0.000000   0.000000
             25         26         27         28         29         30
     1  N   -0.001025   0.000466   0.002436   0.004744   0.000000  -0.000005
     2  N   -0.000016   0.000000   0.330818   0.322175   0.000000   0.000000
     3  N    0.000000   0.000000   0.000000   0.000000   0.001799   0.002500
     4  N   -0.000001   0.000002   0.000000   0.000000   0.319835   0.000015
     5  N    0.000000  -0.000004   0.000000   0.000000   0.000000   0.000000
     6  N    0.000544  -0.000008   0.000000   0.000000   0.003113   0.002464
     7  C    0.383324   0.387861   0.000002  -0.000020   0.000000  -0.000001
     8  C   -0.038928  -0.034564  -0.000166   0.000285   0.000000   0.000018
     9  C    0.000061  -0.000180  -0.026072  -0.023135   0.000000   0.000011
    10  C    0.004265  -0.003544   0.000046  -0.000071   0.000005  -0.001141
    11  C   -0.000275   0.000934  -0.000001   0.000000  -0.000064  -0.024337
    12  C    0.000003   0.000015   0.000000   0.000000  -0.000036   0.375025
    13  C    0.000000   0.000000   0.000000   0.000000   0.000285  -0.021968
    14  C    0.000016  -0.000122   0.000000   0.000000  -0.024872   0.000541
    15  C    0.000006  -0.000053   0.000000   0.000000  -0.020558   0.000000
    16  C    0.000021   0.000924   0.000000   0.000000   0.001804   0.000000
    17  C    0.000006   0.001120   0.000000   0.000000  -0.000006   0.000000
    18  C    0.000000   0.000034   0.000000   0.000000  -0.000004   0.000000
    19  C    0.000000  -0.000001   0.000000   0.000000   0.000000   0.000000
    20  C    0.000000   0.000000   0.000000   0.000000   0.000000   0.000000
    21  C   -0.000001  -0.000013   0.000000   0.000000   0.000058   0.000000
    22  C    0.000000  -0.000043   0.000000   0.000000  -0.002382   0.000000
    23  S   -0.000044   0.000025   0.000267   0.003509   0.000000   0.000326
    24  H   -0.023446  -0.022552   0.000000   0.000000   0.000001  -0.000001
    25  H    0.515898  -0.025286   0.000000   0.000007   0.000000   0.000000
    26  H   -0.025286   0.502031   0.000000   0.000000   0.000000   0.000000
    27  H    0.000000   0.000000   0.321701  -0.016721   0.000000   0.000000
    28  H    0.000007   0.000000  -0.016721   0.311234   0.000000   0.000000
    29  H    0.000000   0.000000   0.000000   0.000000   0.303744  -0.000001
    30  H    0.000000   0.000000   0.000000   0.000000  -0.000001   0.439980
    31  H    0.000000   0.000000   0.000000   0.000000  -0.000023  -0.000095
    32  H    0.000000   0.000062   0.000000   0.000000  -0.000062   0.000000
    33  H    0.000000   0.000039   0.000000   0.000000   0.000002   0.000000
    34  H    0.000000   0.000000   0.000000   0.000000   0.000000   0.000000
    35  H    0.000000   0.000004   0.000000   0.000000   0.000000   0.000000
    36  H    0.000000   0.000000   0.000000   0.000000   0.000000   0.000000
    37  H    0.000000   0.000000   0.000000   0.000000   0.000000   0.000000
    38  H    0.000000   0.000000   0.000000   0.000000   0.000000   0.000000
    39  H    0.000000   0.000000   0.000000   0.000000   0.000000   0.000000
    40  H    0.000000   0.000000   0.000000   0.000000   0.000000   0.000000
    41  H    0.000000   0.000000   0.000000   0.000000   0.001075   0.000000
    42  H    0.000000   0.000000   0.000000   0.000000   0.001454  -0.000004
    43  O    0.000000   0.000000   0.000000   0.000000   0.007393   0.000000
    44  H    0.000000   0.000000   0.000000   0.000000  -0.000172   0.000000
             31         32         33         34         35         36
     1  N    0.000000   0.000000   0.000000   0.000000   0.000000   0.000000
     2  N    0.000000   0.000000   0.000000   0.000000   0.000000   0.000000
     3  N   -0.043533  -0.000022   0.000000   0.000000   0.000000   0.000000
     4  N   -0.000053  -0.003433  -0.000105   0.000000   0.000000   0.000000
     5  N    0.000000  -0.000070  -0.004001  -0.036765  -0.044631  -0.057569
     6  N   -0.000542   0.001721  -0.000007   0.000000   0.000000   0.000000
     7  C    0.000000   0.000009   0.000000   0.000000   0.000000   0.000000
     8  C    0.000001   0.000001   0.000000   0.000000   0.000000   0.000000
     9  C    0.000000   0.000000   0.000000   0.000000   0.000000   0.000000
    10  C   -0.000066  -0.000025   0.000000   0.000000   0.000000   0.000000
    11  C    0.002358  -0.000010   0.000000   0.000000   0.000000   0.000000
    12  C   -0.047904   0.000008   0.000000   0.000000   0.000000   0.000000
    13  C    0.403775  -0.000002   0.000000   0.000000   0.000000   0.000000
    14  C    0.003984   0.002273  -0.000003   0.000000   0.000000   0.000000
    15  C    0.000002  -0.024759   0.001674   0.000000  -0.000007  -0.000007
    16  C    0.000000   0.376604  -0.025932   0.000007   0.000159  -0.000230
    17  C    0.000000  -0.030346   0.380056   0.000466  -0.001276   0.002157
    18  C    0.000000   0.001603  -0.030728   0.003338  -0.003458   0.002051
    19  C    0.000000  -0.000005   0.000417   0.404133   0.404733   0.391169
    20  C    0.000000   0.000002  -0.000056  -0.007451   0.003924   0.000710
    21  C    0.000000   0.000204   0.002778  -0.000048  -0.000091   0.000307
    22  C    0.000000   0.003512   0.000357   0.000002   0.000004  -0.000018
    23  S   -0.000011   0.000000   0.000000   0.000000   0.000000   0.000000
    24  H    0.000000  -0.000005  -0.000001   0.000000   0.000000   0.000000
    25  H    0.000000   0.000000   0.000000   0.000000   0.000000   0.000000
    26  H    0.000000   0.000062   0.000039   0.000000   0.000004   0.000000
    27  H    0.000000   0.000000   0.000000   0.000000   0.000000   0.000000
    28  H    0.000000   0.000000   0.000000   0.000000   0.000000   0.000000
    29  H   -0.000023  -0.000062   0.000002   0.000000   0.000000   0.000000
    30  H   -0.000095   0.000000   0.000000   0.000000   0.000000   0.000000
    31  H    0.462807   0.000000   0.000000   0.000000   0.000000   0.000000
    32  H    0.000000   0.458879  -0.001927   0.000000   0.000000  -0.000002
    33  H    0.000000  -0.001927   0.474712   0.000161  -0.002093  -0.000153
    34  H    0.000000   0.000000   0.000161   0.514705  -0.025289  -0.030466
    35  H    0.000000   0.000000  -0.002093  -0.025289   0.535201  -0.044071
    36  H    0.000000  -0.000002  -0.000153  -0.030466  -0.044071   0.575738
    37  H    0.000000   0.000000   0.000000   0.001863   0.000250  -0.000067
    38  H    0.000000   0.000000   0.000004  -0.000052  -0.000356   0.002370
    39  H    0.000000   0.000000  -0.000001   0.000240   0.000018  -0.000353
    40  H    0.000000   0.000011  -0.000123   0.000000  -0.000003   0.000008
    41  H    0.000000  -0.000130   0.000012   0.000000   0.000000   0.000000
    42  H   -0.000570   0.000000   0.000000   0.000000   0.000000   0.000000
    43  O    0.000394   0.000000   0.000000   0.000000   0.000000   0.000000
    44  H   -0.000013   0.000000   0.000000   0.000000   0.000000   0.000000
             37         38         39         40         41         42
     1  N    0.000000   0.000000   0.000000   0.000000   0.000000   0.000000
     2  N    0.000000   0.000000   0.000000   0.000000   0.000000   0.000000
     3  N    0.000000   0.000000   0.000000   0.000000  -0.000023   0.030134
     4  N    0.000000   0.000000   0.000000  -0.000114   0.000122  -0.000191
     5  N   -0.036865  -0.057885  -0.044500  -0.004154  -0.000072   0.000000
     6  N    0.000000   0.000000   0.000000   0.000000  -0.000025   0.000155
     7  C    0.000000   0.000000   0.000000   0.000000   0.000000   0.000000
     8  C    0.000000   0.000000   0.000000   0.000000   0.000000   0.000000
     9  C    0.000000   0.000000   0.000000   0.000000   0.000000   0.000000
    10  C    0.000000   0.000000   0.000000   0.000000   0.000000   0.000000
    11  C    0.000000   0.000000   0.000000   0.000000   0.000000  -0.000009
    12  C    0.000000   0.000000   0.000000   0.000000   0.000000   0.000213
    13  C    0.000000   0.000000   0.000000   0.000000   0.000000  -0.000940
    14  C    0.000000   0.000000   0.000000   0.000000   0.000220  -0.000068
    15  C    0.000000  -0.000005  -0.000009   0.001761  -0.032813  -0.000012
    16  C    0.000002  -0.000018   0.000006   0.000292   0.003245  -0.000001
    17  C   -0.000052   0.000215  -0.000061   0.002797   0.000254   0.000000
    18  C    0.003294   0.001981  -0.003265  -0.030108   0.001600   0.000000
    19  C   -0.007473   0.000606   0.003973  -0.000059   0.000002   0.000000
    20  C    0.404236   0.391258   0.404645   0.000469  -0.000004   0.000000
    21  C    0.000489   0.002119  -0.001042   0.379669  -0.026696   0.000000
    22  C    0.000007  -0.000210   0.000127  -0.025706   0.376883  -0.000002
    23  S    0.000000   0.000000   0.000000   0.000000   0.000000   0.000000
    24  H    0.000000   0.000000   0.000000   0.000000   0.000000   0.000000
    25  H    0.000000   0.000000   0.000000   0.000000   0.000000   0.000000
    26  H    0.000000   0.000000   0.000000   0.000000   0.000000   0.000000
    27  H    0.000000   0.000000   0.000000   0.000000   0.000000   0.000000
    28  H    0.000000   0.000000   0.000000   0.000000   0.000000   0.000000
    29  H    0.000000   0.000000   0.000000   0.000000   0.001075   0.001454
    30  H    0.000000   0.000000   0.000000   0.000000   0.000000  -0.000004
    31  H    0.000000   0.000000   0.000000   0.000000   0.000000  -0.000570
    32  H    0.000000   0.000000   0.000000   0.000011  -0.000130   0.000000
    33  H    0.000000   0.000004  -0.000001  -0.000123   0.000012   0.000000
    34  H    0.001863  -0.000052   0.000240   0.000000   0.000000   0.000000
    35  H    0.000250  -0.000356   0.000018  -0.000003   0.000000   0.000000
    36  H   -0.000067   0.002370  -0.000353   0.000008   0.000000   0.000000
    37  H    0.514441  -0.030908  -0.024843   0.000167   0.000000   0.000000
    38  H   -0.030908   0.577004  -0.044047   0.000012  -0.000002   0.000000
    39  H   -0.024843  -0.044047   0.533553  -0.002357   0.000001   0.000000
    40  H    0.000167   0.000012  -0.002357   0.473217  -0.002060   0.000000
    41  H    0.000000  -0.000002   0.000001  -0.002060   0.466370   0.000000
    42  H    0.000000   0.000000   0.000000   0.000000   0.000000   0.238794
    43  O    0.000000   0.000000   0.000000   0.000000  -0.000002   0.248408
    44  H    0.000000   0.000000   0.000000   0.000000   0.000000  -0.015300
             43         44
     1  N    0.000000   0.000000
     2  N    0.000000   0.000000
     3  N   -0.012869   0.000904
     4  N   -0.000988   0.000027
     5  N    0.000000   0.000000
     6  N   -0.000004   0.000000
     7  C    0.000000   0.000000
     8  C    0.000000   0.000000
     9  C    0.000000   0.000000
    10  C    0.000000   0.000000
    11  C   -0.000001   0.000000
    12  C   -0.000004   0.000001
    13  C    0.000294   0.000003
    14  C   -0.000217  -0.000005
    15  C   -0.000002   0.000000
    16  C    0.000000   0.000000
    17  C    0.000000   0.000000
    18  C    0.000000   0.000000
    19  C    0.000000   0.000000
    20  C    0.000000   0.000000
    21  C    0.000000   0.000000
    22  C   -0.000002   0.000000
    23  S    0.000000   0.000000
    24  H    0.000000   0.000000
    25  H    0.000000   0.000000
    26  H    0.000000   0.000000
    27  H    0.000000   0.000000
    28  H    0.000000   0.000000
    29  H    0.007393  -0.000172
    30  H    0.000000   0.000000
    31  H    0.000394  -0.000013
    32  H    0.000000   0.000000
    33  H    0.000000   0.000000
    34  H    0.000000   0.000000
    35  H    0.000000   0.000000
    36  H    0.000000   0.000000
    37  H    0.000000   0.000000
    38  H    0.000000   0.000000
    39  H    0.000000   0.000000
    40  H    0.000000   0.000000
    41  H   -0.000002   0.000000
    42  H    0.248408  -0.015300
    43  O    8.430133   0.266107
    44  H    0.266107   0.327804
 Mulliken atomic charges:
              1
     1  N   -0.587641
     2  N   -0.885377
     3  N   -0.699178
     4  N   -0.923785
     5  N   -0.669180
     6  N   -0.686391
     7  C   -0.493709
     8  C    0.339585
     9  C    0.387270
    10  C   -0.384126
    11  C    0.425377
    12  C   -0.374100
    13  C    0.144233
    14  C    0.903038
    15  C    0.284095
    16  C   -0.164385
    17  C   -0.283705
    18  C    0.389000
    19  C   -0.289906
    20  C   -0.290207
    21  C   -0.280285
    22  C   -0.195714
    23  S    0.267293
    24  H    0.209676
    25  H    0.184872
    26  H    0.192853
    27  H    0.387688
    28  H    0.397992
    29  H    0.407615
    30  H    0.226673
    31  H    0.219489
    32  H    0.215912
    33  H    0.204915
    34  H    0.175156
    35  H    0.176982
    36  H    0.158425
    37  H    0.175459
    38  H    0.157914
    39  H    0.177916
    40  H    0.206280
    41  H    0.212042
    42  H    0.497939
    43  O   -0.938641
    44  H    0.420643
 Sum of Mulliken atomic charges =   0.00000
 Mulliken charges with hydrogens summed into heavy atoms:
              1
     1  N   -0.587641
     2  N   -0.099697
     3  N   -0.699178
     4  N   -0.516170
     5  N   -0.669180
     6  N   -0.686391
     7  C    0.093692
     8  C    0.339585
     9  C    0.387270
    10  C   -0.384126
    11  C    0.425377
    12  C   -0.147428
    13  C    0.363722
    14  C    0.903038
    15  C    0.284095
    16  C    0.051527
    17  C   -0.078790
    18  C    0.389000
    19  C    0.220658
    20  C    0.221082
    21  C   -0.074006
    22  C    0.016328
    23  S    0.267293
    43  O   -0.020059
 Sum of Mulliken charges with hydrogens summed into heavy atoms =   0.00000
 Electronic spatial extent (au):  <R**2>=          11884.5482
 Charge=              0.0000 electrons
 Dipole moment (field-independent basis, Debye):
    X=             -0.9262    Y=             -3.9856    Z=              2.7062  Tot=              4.9057
 Quadrupole moment (field-independent basis, Debye-Ang):
   XX=           -110.7399   YY=           -160.0320   ZZ=           -145.8178
   XY=             -3.7551   XZ=             -9.0885   YZ=              1.1822
 Traceless Quadrupole moment (field-independent basis, Debye-Ang):
   XX=             28.1234   YY=            -21.1688   ZZ=             -6.9546
   XY=             -3.7551   XZ=             -9.0885   YZ=              1.1822
 Octapole moment (field-independent basis, Debye-Ang**2):
  XXX=            -29.3818  YYY=           -316.0945  ZZZ=             -3.6607  XYY=            -77.4800
  XXY=           -136.6950  XXZ=             30.2703  XZZ=             15.4997  YZZ=            -31.0514
  YYZ=             76.6301  XYZ=             13.3583
 Hexadecapole moment (field-independent basis, Debye-Ang**3):
 XXXX=          -8996.0840 YYYY=          -5743.6476 ZZZZ=           -502.2966 XXXY=             78.3007
 XXXZ=           -385.1885 YYYX=            -82.2680 YYYZ=            305.2022 ZZZX=            -22.0781
 ZZZY=            -37.0856 XXYY=          -2096.4867 XXZZ=          -1826.4164 YYZZ=           -788.6670
 XXYZ=           -209.0508 YYXZ=            -51.4249 ZZXY=             -5.0810
 N-N= 2.114093641295D+03 E-N=-7.556414317035D+03  KE= 1.415211295734D+03
 1\1\GINC-B41\FOpt\RHF\6-31G(d)\C16H20N6O1S1\RUPAKHETIC\28-Mar-2018\1\\
 #HF/6-31G* nosymm SCF=Tight opt=(Z-MATRIX,MaxCycle=200)\\Mol-Water Dim
 er\\0,1\N,0,-3.01331,-2.51155,-0.41219\N,0,-5.22756,-3.08025,0.01776\N
 ,0,-0.97817,3.56035,0.13129\N,0,1.03999,2.52808,0.16831\N,0,4.96579,-1
 .51547,-0.0087\N,0,-0.84043,1.19804,0.0407\C,0,-0.7616,-1.67732,-0.873
 75\C,0,-2.17855,-1.41595,-0.45381\C,0,-4.20008,-2.18855,-0.05691\C,0,-
 2.74326,-0.23257,-0.11111\C,0,-2.16161,1.10984,-0.02969\C,0,-2.95851,2
 .25384,-0.0187\C,0,-2.28736,3.45662,0.06768\C,0,-0.31018,2.40783,0.107
 02\C,0,2.00032,1.48794,0.11857\C,0,2.04918,0.49089,1.08054\C,0,3.01909
 ,-0.49053,1.0434\C,0,4.00146,-0.50964,0.04361\C,0,5.18471,-2.31613,1.1
 765\C,0,6.11511,-1.31633,-0.86371\C,0,3.95701,0.51458,-0.90628\C,0,2.9
 6534,1.47999,-0.87153\S,0,-4.44477,-0.50304,0.26866\H,0,-0.3237,-0.829
 86,-1.37539\H,0,-0.74791,-2.54516,-1.52064\H,0,-0.14764,-1.89114,-0.00
 521\H,0,-5.97008,-2.88098,0.65016\H,0,-4.93488,-4.03367,0.00875\H,0,1.
 36351,3.46879,0.16814\H,0,-4.02699,2.21893,-0.09266\H,0,-2.83523,4.383
 64,0.08106\H,0,1.31685,0.47914,1.86562\H,0,3.00679,-1.23797,1.81091\H,
 0,5.96939,-3.03215,0.97745\H,0,4.29634,-2.88014,1.43166\H,0,5.47495,-1
 .72296,2.04398\H,0,6.75956,-2.18123,-0.79487\H,0,6.69756,-0.43358,-0.5
 979\H,0,5.81297,-1.22539,-1.89952\H,0,4.68426,0.56815,-1.69104\H,0,2.9
 501,2.24274,-1.6304\X,0,-1.67271,2.23413,0.03772\X,0,-1.04532,3.48991,
 1.62813\H,3,roh,43,90.,42,180.,0\X,44,1.5,3,90.,43,0.,0\O,44,0.9474,45
 ,90.,43,180.,0\H,46,0.9474,44,105.5395,45,phi,0\\roh=2.05606187\phi=35
 1.16868439\\Version=EM64L-G09RevA.02\HF=-1416.5989295\RMSD=8.843e-09\R
 MSF=1.520e-03\Dipole=-0.364387,-1.5680528,1.0647008\Quadrupole=20.9090
 278,-15.7384617,-5.1705661,-2.7917986,-6.7570935,0.878939\PG=C01 [X(C1
 6H20N6O1S1)]\\@


 NEVER TEACH A PIG TO SING.
 IT WASTES YOUR TIME AND ANNOYS THE PIG.
     -- SEEN ON A GREETING CARD
 Job cpu time:  0 days  0 hours 36 minutes 26.2 seconds.
 File lengths (MBytes):  RWF=    105 Int=      0 D2E=      0 Chk=     10 Scr=      1
 Normal termination of Gaussian 09 at Wed Mar 28 15:52:37 2018.
