 Entering Gaussian System, Link 0=/homes/huanglei/prog/g09/g09
 Initial command:
 /homes/huanglei/prog/g09/l1.exe /scratch/1867310.bmgt1.lcrc.anl.gov/2/Gau-20994.inp -scrdir=/scratch/1867310.bmgt1.lcrc.anl.gov/2/
 Entering Link 1 = /homes/huanglei/prog/g09/l1.exe PID=     20996.
  
 Copyright (c) 1988,1990,1992,1993,1995,1998,2003,2009, Gaussian, Inc.
                  All Rights Reserved.
  
 This is part of the Gaussian(R) 09 program.  It is based on
 the Gaussian(R) 03 system (copyright 2003, Gaussian, Inc.),
 the Gaussian(R) 98 system (copyright 1998, Gaussian, Inc.),
 the Gaussian(R) 94 system (copyright 1995, Gaussian, Inc.),
 the Gaussian 92(TM) system (copyright 1992, Gaussian, Inc.),
 the Gaussian 90(TM) system (copyright 1990, Gaussian, Inc.),
 the Gaussian 88(TM) system (copyright 1988, Gaussian, Inc.),
 the Gaussian 86(TM) system (copyright 1986, Carnegie Mellon
 University), and the Gaussian 82(TM) system (copyright 1983,
 Carnegie Mellon University). Gaussian is a federally registered
 trademark of Gaussian, Inc.
  
 This software contains proprietary and confidential information,
 including trade secrets, belonging to Gaussian, Inc.
  
 This software is provided under written license and may be
 used, copied, transmitted, or stored only in accord with that
 written license.
  
 The following legend is applicable only to US Government
 contracts under FAR:
  
                    RESTRICTED RIGHTS LEGEND
  
 Use, reproduction and disclosure by the US Government is
 subject to restrictions as set forth in subparagraphs (a)
 and (c) of the Commercial Computer Software - Restricted
 Rights clause in FAR 52.227-19.
  
 Gaussian, Inc.
 340 Quinnipiac St., Bldg. 40, Wallingford CT 06492
  
  
 ---------------------------------------------------------------
 Warning -- This program may not be used in any manner that
 competes with the business of Gaussian, Inc. or will provide
 assistance to any competitor of Gaussian, Inc.  The licensee
 of this program is prohibited from giving any competitor of
 Gaussian, Inc. access to this program.  By using this program,
 the user acknowledges that Gaussian, Inc. is engaged in the
 business of creating and licensing software in the field of
 computational chemistry and represents and warrants to the
 licensee that it is not a competitor of Gaussian, Inc. and that
 it will not use this program in any manner prohibited above.
 ---------------------------------------------------------------
  

 Cite this work as:
 Gaussian 09, Revision A.02,
 M. J. Frisch, G. W. Trucks, H. B. Schlegel, G. E. Scuseria, 
 M. A. Robb, J. R. Cheeseman, G. Scalmani, V. Barone, B. Mennucci, 
 G. A. Petersson, H. Nakatsuji, M. Caricato, X. Li, H. P. Hratchian, 
 A. F. Izmaylov, J. Bloino, G. Zheng, J. L. Sonnenberg, M. Hada, 
 M. Ehara, K. Toyota, R. Fukuda, J. Hasegawa, M. Ishida, T. Nakajima, 
 Y. Honda, O. Kitao, H. Nakai, T. Vreven, J. A. Montgomery, Jr., 
 J. E. Peralta, F. Ogliaro, M. Bearpark, J. J. Heyd, E. Brothers, 
 K. N. Kudin, V. N. Staroverov, R. Kobayashi, J. Normand, 
 K. Raghavachari, A. Rendell, J. C. Burant, S. S. Iyengar, J. Tomasi, 
 M. Cossi, N. Rega, J. M. Millam, M. Klene, J. E. Knox, J. B. Cross, 
 V. Bakken, C. Adamo, J. Jaramillo, R. Gomperts, R. E. Stratmann, 
 O. Yazyev, A. J. Austin, R. Cammi, C. Pomelli, J. W. Ochterski, 
 R. L. Martin, K. Morokuma, V. G. Zakrzewski, G. A. Voth, 
 P. Salvador, J. J. Dannenberg, S. Dapprich, A. D. Daniels, 
 O. Farkas, J. B. Foresman, J. V. Ortiz, J. Cioslowski, 
 and D. J. Fox, Gaussian, Inc., Wallingford CT, 2009.
 
 ******************************************
 Gaussian 09:  EM64L-G09RevA.02 11-Jun-2009
                28-Mar-2018 
 ******************************************
 %mem=5GB
 %nproc=4
 Will use up to    4 processors via shared memory.
 -------------------------------------------------------
 #HF/6-31G* nosymm SCF=Tight opt=(Z-MATRIX,MaxCycle=200)
 -------------------------------------------------------
 1/6=200,10=7,18=40,38=1/1,3;
 2/12=2,15=1,17=6,18=5,29=3,40=1/2;
 3/5=1,6=6,7=1,11=9,16=1,25=1,30=1,71=1/1,2,3;
 4//1;
 5/5=2,32=2,38=5/2;
 6/7=2,8=2,9=2,10=2,28=1/1;
 7/29=1,30=1/1,2,3,16;
 1/6=200,10=7,18=40/3(2);
 2/15=1,29=3/2;
 99//99;
 2/15=1,29=3/2;
 3/5=1,6=6,7=1,11=9,16=1,25=1,30=1,71=1/1,2,3;
 4/5=5,16=3/1;
 5/5=2,32=2,38=5/2;
 7/30=1/1,2,3,16;
 1/6=200,18=40/3(-5);
 2/15=1,29=3/2;
 6/7=2,8=2,9=2,10=2,19=2,28=1/1;
 99/9=1/99;
 ---------------
 Mol-Water Dimer
 ---------------
 Symbolic Z-matrix:
 Charge =  0 Multiplicity = 1
 N                    -3.01331  -2.51155  -0.41219 
 N                    -5.22756  -3.08025   0.01776 
 N                    -0.97817   3.56035   0.13129 
 N99                   1.03999   2.52808   0.16831 
 N                     4.96579  -1.51547  -0.0087 
 N                    -0.84043   1.19804   0.0407 
 C                    -0.7616   -1.67732  -0.87375 
 C                    -2.17855  -1.41595  -0.45381 
 C                    -4.20008  -2.18855  -0.05691 
 C                    -2.74326  -0.23257  -0.11111 
 C                    -2.16161   1.10984  -0.02969 
 C                    -2.95851   2.25384  -0.0187 
 C                    -2.28736   3.45662   0.06768 
 C                    -0.31018   2.40783   0.10702 
 C                     2.00032   1.48794   0.11857 
 C                     2.04918   0.49089   1.08054 
 C                     3.01909  -0.49053   1.0434 
 C                     4.00146  -0.50964   0.04361 
 C                     5.18471  -2.31613   1.1765 
 C                     6.11511  -1.31633  -0.86371 
 C                     3.95701   0.51458  -0.90628 
 C                     2.96534   1.47999  -0.87153 
 S                    -4.44477  -0.50304   0.26866 
 H                    -0.3237   -0.82986  -1.37539 
 H                    -0.74791  -2.54516  -1.52064 
 H                    -0.14764  -1.89114  -0.00521 
 H                    -5.97008  -2.88098   0.65016 
 H                    -4.93488  -4.03367   0.00875 
 H99                   1.36351   3.46879   0.16814 
 H                    -4.02699   2.21893  -0.09266 
 H                    -2.83523   4.38364   0.08106 
 H                     1.31685   0.47914   1.86562 
 H                     3.00679  -1.23797   1.81091 
 H                     5.96939  -3.03215   0.97745 
 H                     4.29634  -2.88014   1.43166 
 H                     5.47495  -1.72296   2.04398 
 H                     6.75956  -2.18123  -0.79487 
 H                     6.69756  -0.43358  -0.5979 
 H                     5.81297  -1.22539  -1.89952 
 H                     4.68426   0.56815  -1.69104 
 H                     2.9501    2.24274  -1.6304 
 X1                    1.03999   2.52808   0.16831 
 X2                    1.43369   3.44438  -1.33002 
 X3                    2.98959   8.19699   0.16729 
 O1W                  H99  roh      X2    90.      N99   180.     0
 H1W                  O1W   0.9474   H99   127.2302  X2   phi      0
 H2W                  O1W   0.9474   H1W   105.5395  X3    0.       0
       Variables:
  roh                   2.0354                   
  phi                 266.32167                  
 

 GradGradGradGradGradGradGradGradGradGradGradGradGradGradGradGradGradGrad
 Berny optimization.
 Initialization pass.
                       ----------------------------
                       !    Initial Parameters    !
                       ! (Angstroms and Degrees)  !
 ----------------------                            ----------------------
 !      Name          Value   Derivative information (Atomic Units)     !
 ------------------------------------------------------------------------
 !       roh         2.0354   estimate D2E/DX2                          !
 !       phi       266.3217   estimate D2E/DX2                          !
 ------------------------------------------------------------------------
 Trust Radius=3.00D-01 FncErr=1.00D-07 GrdErr=1.00D-07
 Number of steps in this run= 100 maximum allowed number of steps= 100.
 GradGradGradGradGradGradGradGradGradGradGradGradGradGradGradGradGradGrad

 ---------------------------------------------------------------------------------------------------
                            Z-MATRIX (ANGSTROMS AND DEGREES)
   CD    Cent   Atom    N1       Length/X        N2       Alpha/Y        N3        Beta/Z          J
 ---------------------------------------------------------------------------------------------------
      1      1  N        0  -3.013310         -2.511550         -0.412190
      2      2  N        0  -5.227560         -3.080250          0.017760
      3      3  N        0  -0.978170          3.560350          0.131290
      4      4  N        0   1.039990          2.528080          0.168310
      5      5  N        0   4.965790         -1.515470         -0.008700
      6      6  N        0  -0.840430          1.198040          0.040700
      7      7  C        0  -0.761600         -1.677320         -0.873750
      8      8  C        0  -2.178550         -1.415950         -0.453810
      9      9  C        0  -4.200080         -2.188550         -0.056910
     10     10  C        0  -2.743260         -0.232570         -0.111110
     11     11  C        0  -2.161610          1.109840         -0.029690
     12     12  C        0  -2.958510          2.253840         -0.018700
     13     13  C        0  -2.287360          3.456620          0.067680
     14     14  C        0  -0.310180          2.407830          0.107020
     15     15  C        0   2.000320          1.487940          0.118570
     16     16  C        0   2.049180          0.490890          1.080540
     17     17  C        0   3.019090         -0.490530          1.043400
     18     18  C        0   4.001460         -0.509640          0.043610
     19     19  C        0   5.184710         -2.316130          1.176500
     20     20  C        0   6.115110         -1.316330         -0.863710
     21     21  C        0   3.957010          0.514580         -0.906280
     22     22  C        0   2.965340          1.479990         -0.871530
     23     23  S        0  -4.444770         -0.503040          0.268660
     24     24  H        0  -0.323700         -0.829860         -1.375390
     25     25  H        0  -0.747910         -2.545160         -1.520640
     26     26  H        0  -0.147640         -1.891140         -0.005210
     27     27  H        0  -5.970080         -2.880980          0.650160
     28     28  H        0  -4.934880         -4.033670          0.008750
     29     29  H        0   1.363510          3.468790          0.168140
     30     30  H        0  -4.026990          2.218930         -0.092660
     31     31  H        0  -2.835230          4.383640          0.081060
     32     32  H        0   1.316850          0.479140          1.865620
     33     33  H        0   3.006790         -1.237970          1.810910
     34     34  H        0   5.969390         -3.032150          0.977450
     35     35  H        0   4.296340         -2.880140          1.431660
     36     36  H        0   5.474950         -1.722960          2.043980
     37     37  H        0   6.759560         -2.181230         -0.794870
     38     38  H        0   6.697560         -0.433580         -0.597900
     39     39  H        0   5.812970         -1.225390         -1.899520
     40     40  H        0   4.684260          0.568150         -1.691040
     41     41  H        0   2.950100          2.242740         -1.630400
     42         X        0   1.039990          2.528080          0.168310
     43         X        0   1.433690          3.444380         -1.330020
     44         X        0   2.989590          8.196990          0.167290
     45     42  O       29   2.035400(    44)     43   90.000(    89)      4  180.000(   133)      0
     46     43  H       45   0.947400(    45)     29  127.230(    90)     43  266.322(   134)      0
     47     44  H       45   0.947400(    46)     46  105.540(    91)     44    0.000(   135)      0
 ---------------------------------------------------------------------------------------------------
                         Z-Matrix orientation:                         
 ---------------------------------------------------------------------
 Center     Atomic      Atomic             Coordinates (Angstroms)
 Number     Number       Type             X           Y           Z
 ---------------------------------------------------------------------
      1          7           0       -3.013310   -2.511550   -0.412190
      2          7           0       -5.227560   -3.080250    0.017760
      3          7           0       -0.978170    3.560350    0.131290
      4          7           0        1.039990    2.528080    0.168310
      5          7           0        4.965790   -1.515470   -0.008700
      6          7           0       -0.840430    1.198040    0.040700
      7          6           0       -0.761600   -1.677320   -0.873750
      8          6           0       -2.178550   -1.415950   -0.453810
      9          6           0       -4.200080   -2.188550   -0.056910
     10          6           0       -2.743260   -0.232570   -0.111110
     11          6           0       -2.161610    1.109840   -0.029690
     12          6           0       -2.958510    2.253840   -0.018700
     13          6           0       -2.287360    3.456620    0.067680
     14          6           0       -0.310180    2.407830    0.107020
     15          6           0        2.000320    1.487940    0.118570
     16          6           0        2.049180    0.490890    1.080540
     17          6           0        3.019090   -0.490530    1.043400
     18          6           0        4.001460   -0.509640    0.043610
     19          6           0        5.184710   -2.316130    1.176500
     20          6           0        6.115110   -1.316330   -0.863710
     21          6           0        3.957010    0.514580   -0.906280
     22          6           0        2.965340    1.479990   -0.871530
     23         16           0       -4.444770   -0.503040    0.268660
     24          1           0       -0.323700   -0.829860   -1.375390
     25          1           0       -0.747910   -2.545160   -1.520640
     26          1           0       -0.147640   -1.891140   -0.005210
     27          1           0       -5.970080   -2.880980    0.650160
     28          1           0       -4.934880   -4.033670    0.008750
     29          1           0        1.363510    3.468790    0.168140
     30          1           0       -4.026990    2.218930   -0.092660
     31          1           0       -2.835230    4.383640    0.081060
     32          1           0        1.316850    0.479140    1.865620
     33          1           0        3.006790   -1.237970    1.810910
     34          1           0        5.969390   -3.032150    0.977450
     35          1           0        4.296340   -2.880140    1.431660
     36          1           0        5.474950   -1.722960    2.043980
     37          1           0        6.759560   -2.181230   -0.794870
     38          1           0        6.697560   -0.433580   -0.597900
     39          1           0        5.812970   -1.225390   -1.899520
     40          1           0        4.684260    0.568150   -1.691040
     41          1           0        2.950100    2.242740   -1.630400
     42         -1           0        1.039990    2.528080    0.168310
     43         -1           0        1.433690    3.444380   -1.330020
     44         -1           0        2.989590    8.196990    0.167290
     45          8           0        2.025454    5.393545    0.167788
     46          1           0        2.920585    5.691861    0.253312
     47          1           0        1.503147    6.179303    0.082071
 ---------------------------------------------------------------------
                    Distance matrix (angstroms):
                    1          2          3          4          5
     1  N    0.000000
     2  N    2.326194   0.000000
     3  N    6.426907   7.884654   0.000000
     4  N    6.493388   8.411790   2.267140   0.000000
     5  N    8.051150  10.312789   7.817558   5.638576   0.000000
     6  N    4.322913   6.127903   2.368056   2.306788   6.409194
     7  C    2.445235   4.765270   5.337621   4.692228   5.794610
     8  C    1.378004   3.505529   5.152360   5.128490   7.158884
     9  C    1.280225   1.362505   6.592873   7.053769   9.190676
    10  C    2.314590   3.781221   4.190530   4.691721   7.815739
    11  C    3.739808   5.192221   2.726068   3.507257   7.595559
    12  C    4.781922   5.796761   2.377228   4.012254   8.775097
    13  C    6.031279   7.167841   1.314833   3.455947   8.794072
    14  C    5.637091   7.369370   1.332330   1.356899   6.575829
    15  C    6.435380   8.551068   3.628560   1.416545   4.222639
    16  C    6.072207   8.175175   4.414466   2.449647   3.703854
    17  C    6.526340   8.704357   5.763650   3.714112   2.438659
    18  C    7.309063   9.580371   6.431891   4.244243   1.394404
    19  C    8.352823  10.504376   8.579427   6.454574   1.446956
    20  C    9.217401  11.512800   8.665256   6.449914   1.446249
    21  C    7.614916   9.906209   5.891457   3.703773   2.438112
    22  C    7.203308   9.418611   4.569991   2.426259   3.703924
    23  S    2.558661   2.705129   5.342970   6.267404   9.468927
    24  H    3.315092   5.572519   4.687468   3.939343   5.506052
    25  H    2.522266   4.766577   6.329229   5.637987   5.999383
    26  H    2.960170   5.217288   5.516082   4.579310   5.127212
    27  H    3.163472   0.995477   8.165729   8.867423  11.040469
    28  H    2.487262   0.997373   8.563861   8.875871  10.215914
    29  H    7.433559   9.292725   2.343759   0.994787   6.152279
    30  H    4.848411   5.434599   3.338393   5.083106   9.737704
    31  H    6.915103   7.838170   2.031994   4.297446   9.780770
    32  H    5.734364   7.675490   4.215314   2.675008   4.561393
    33  H    6.542613   8.626349   6.459482   4.555170   2.688060
    34  H    9.104451  11.238105   9.614865   7.474614   2.068822
    35  H    7.547624   9.630360   8.425635   6.438067   2.094069
    36  H    8.871595  10.976863   8.556548   6.423266   2.125039
    37  H    9.785936  12.048222   9.679668   7.471198   2.068553
    38  H    9.932444  12.230797   8.683319   6.431688   2.125246
    39  H    9.042653  11.358247   8.552607   6.414499   2.092143
    40  H    8.388837  10.699299   6.658623   4.536432   2.692768
    41  H    7.723313   9.895695   4.502328   2.639185   4.562572
    42  X    6.493388   8.411790   2.267140   0.000000   5.638576
    43  X    7.489414   9.421229   2.822401   1.799888   6.230709
    44  X   12.289973  13.954213   6.102692   5.994788   9.913033
    45  O    9.392340  11.154996   3.519047   3.030187   7.510740
    46  H   10.146426  11.974877   4.445056   3.681491   7.496475
    47  H    9.806814  11.447527   3.608084   3.681492   8.438464
                    6          7          8          9         10
     6  N    0.000000
     7  C    3.018299   0.000000
     8  C    2.977927   1.500804   0.000000
     9  C    4.771349   3.570956   2.200233   0.000000
    10  C    2.385467   2.568248   1.355260   2.439492   0.000000
    11  C    1.325990   3.231211   2.561207   3.877561   1.465268
    12  C    2.367384   4.583835   3.776906   4.612785   2.497420
    13  C    2.682446   5.437975   4.901605   5.961708   3.721550
    14  C    1.322556   4.225416   4.292625   6.023695   3.597106
    15  C    2.856565   4.316454   5.120854   7.210571   5.051184
    16  C    3.151377   4.052267   4.885076   6.893942   4.991083
    17  C    4.330424   4.401994   5.487577   7.497358   5.882526
    18  C    5.134207   4.989165   6.265888   8.372222   6.752181
    19  C    7.066947   6.322199   7.595119   9.466354   8.297703
    20  C    7.451144   6.886186   8.304381  10.383392   8.956096
    21  C    4.937542   5.202957   6.448005   8.635187   6.788531
    22  C    3.923716   4.884536   5.917817   8.091047   6.008262
    23  S    3.992105   4.031101   2.547768   1.734016   1.764232
    24  H    2.526796   1.077770   2.152505   4.314018   2.794536
    25  H    4.056832   1.082497   2.111865   3.766584   3.363966
    26  H    3.166244   1.084909   2.133458   4.063668   3.082095
    27  H    6.582033   5.558720   4.211978   2.027882   4.243345
    28  H    6.643518   4.873136   3.829331   1.987136   4.389297
    29  H    3.167001   5.664281   6.065781   7.937864   5.535667
    30  H    3.348756   5.143310   4.093838   4.411022   2.767337
    31  H    3.758843   6.476638   5.861106   6.713831   4.621124
    32  H    2.915649   4.058870   4.603145   6.422555   4.571486
    33  H    4.885580   4.647708   5.661129   7.505420   6.145573
    34  H    8.071286   7.111170   8.429089  10.256690   9.215904
    35  H    6.704680   5.687218   6.900946   8.653513   7.677613
    36  H    7.240815   6.885477   8.056629   9.911444   8.625813
    37  H    8.359276   7.538435   8.977293  10.984459   9.724628
    38  H    7.738946   7.567169   8.931469  11.051296   9.455498
    39  H    7.342016   6.669439   8.123471  10.226635   8.797339
    40  H    5.823906   5.947057   7.250210   9.444643   7.635796
    41  H    4.272247   5.451248   6.408855   8.557878   6.391381
    42  X    2.306788   4.692228   5.128490   7.053769   4.691721
    43  X    3.478008   5.591001   6.118728   8.067842   5.696720
    44  X    7.979372  10.614009  10.931791  12.633331  10.198066
    45  O    5.082490   7.671350   8.026784   9.813049   7.380487
    46  H    5.863861   8.314661   8.776228  10.625488   8.204318
    47  H    5.505183   8.232205   8.457537  10.127540   7.692945
                   11         12         13         14         15
    11  C    0.000000
    12  C    1.394240   0.000000
    13  C    2.352163   1.380067   0.000000
    14  C    2.265229   2.655781   2.238470   0.000000
    15  C    4.181698   5.019506   4.718314   2.486914   0.000000
    16  C    4.398461   5.421557   5.350422   3.192018   1.386320
    17  C    5.527419   6.662682   6.685090   4.512354   2.409885
    18  C    6.372717   7.488784   7.435123   5.206332   2.828517
    19  C    8.195156   9.414094   9.507153   7.324848   5.072524
    20  C    8.665217   9.787274   9.708246   7.489729   5.075461
    21  C    6.209690   7.185906   6.971109   4.777037   2.413790
    22  C    5.208774   6.034746   5.690346   3.542242   1.382615
    23  S    2.811266   3.145144   4.513726   5.059064   6.747275
    24  H    2.991865   4.276919   4.930753   3.560949   3.606270
    25  H    4.192911   5.492993   6.396408   5.231921   5.148366
    26  H    3.614216   5.008196   5.760404   4.303505   4.005900
    27  H    5.558173   5.990267   7.353019   7.765371   9.104797
    28  H    5.843646   6.590870   7.944638   7.930349   8.865508
    29  H    4.246205   4.493425   3.652272   1.982577   2.081286
    30  H    2.171103   1.071605   2.141004   3.726960   6.075149
    31  H    3.344218   2.135696   1.076897   3.206303   5.636402
    32  H    4.011193   4.997892   5.008823   3.075670   2.130022
    33  H    5.967611   7.150176   7.287390   5.215112   3.362675
    34  H    9.180609  10.423119  10.540671   8.353684   6.076381
    35  H    7.730498   9.005229   9.239052   7.137039   5.106470
    36  H    8.404874   9.549494   9.538725   7.367698   5.107850
    37  H    9.539597  10.710423  10.694677   8.476680   6.078449
    38  H    9.010544  10.039790   9.813534   7.594665   5.125391
    39  H    8.517247   9.621922   9.560672   7.397260   5.096189
    40  H    7.065370   8.003137   7.748538   5.617995   3.365150
    41  H    5.474972   6.124490   5.638082   3.698014   2.128544
    42  X    3.507257   4.012254   3.455947   1.356899   1.416545
    43  X    4.479634   4.735860   3.974912   2.486082   2.499428
    44  X    8.763638   8.410441   7.094169   6.663819   6.781768
    45  O    5.993382   5.893422   4.728854   3.791223   3.905996
    46  H    6.848629   6.815991   5.670402   4.609133   4.305577
    47  H    6.256388   5.943551   4.667028   4.184828   4.717775
                   16         17         18         19         20
    16  C    0.000000
    17  C    1.380322   0.000000
    18  C    2.426454   1.401783   0.000000
    19  C    4.209527   2.835567   2.438632   0.000000
    20  C    4.855712   3.728854   2.437518   2.455138   0.000000
    21  C    2.754602   2.385622   1.397603   3.722652   2.830449
    22  C    2.372392   2.748235   2.422737   4.850831   4.211949
    23  S    6.619549   7.503971   8.449230   9.840648  10.651515
    24  H    3.661493   4.140040   4.563235   6.250098   6.477403
    25  H    4.879288   4.998609   5.398772   6.520966   7.003044
    26  H    3.417446   3.617937   4.373323   5.478231   6.347398
    27  H    8.709952   9.309891  10.267559  11.181477  12.279729
    28  H    8.390320   8.768693   9.606153  10.330522  11.412598
    29  H    3.189123   4.379868   4.775164   7.005973   6.822008
    30  H    6.425135   7.634072   8.480547  10.345673  10.768230
    31  H    6.325340   7.678326   8.407492  10.507442  10.653208
    32  H    1.073683   2.124600   3.391834   4.821697   5.804847
    33  H    2.106992   1.071396   2.154804   2.511621   4.101388
    34  H    5.271668   3.894670   3.332846   1.080754   2.520941
    35  H    4.066553   2.737216   2.762772   1.082781   3.319962
    36  H    4.191092   2.924259   2.764923   1.090235   3.004965
    37  H    5.731062   4.497646   3.332323   2.526787   1.080790
    38  H    5.027847   4.028430   2.772413   2.996866   1.090482
    39  H    5.098283   4.123901   2.751294   3.323601   1.082802
    40  H    3.825084   3.372055   2.153336   4.097842   2.506606
    41  H    3.351094   3.824229   3.388696   5.801333   4.824115
    42  X    2.449647   3.714112   4.244243   6.454574   6.449914
    43  X    3.861700   4.861083   4.910659   7.316848   6.693093
    44  X    7.816801   8.731635   8.766104  10.787157  10.066533
    45  O    4.986954   6.031281   6.226365   8.392705   7.925384
    46  H    5.337954   6.233450   6.298482   8.372960   7.782510
    47  H    5.801132   6.907164   7.140379   9.323308   8.851509
                   21         22         23         24         25
    21  C    0.000000
    22  C    1.384425   0.000000
    23  S    8.544351   7.755138   0.000000
    24  H    4.511326   4.050564   4.448925   0.000000
    25  H    5.645859   5.514653   4.586788   1.772937   0.000000
    26  H    4.842269   4.669654   4.524064   1.742041   1.756301
    27  H   10.606576  10.058595   2.850739   6.339681   5.665351
    28  H   10.029435   9.674131   3.573949   5.783012   4.699512
    29  H    4.075289   2.757190   7.037162   4.869040   6.593760
    30  H    8.204331   7.074274   2.777447   4.965367   5.957184
    31  H    7.879022   6.556312   5.148345   5.967379   7.411519
    32  H    3.828202   3.348315   6.058979   3.861221   4.987623
    33  H    3.370085   3.818967   7.644894   4.627227   5.187075
    34  H    4.491927   5.727342  10.740275   7.070284   7.183295
    35  H    4.135847   5.107541   9.132917   5.781691   5.854293
    36  H    4.001845   5.005720  10.150902   6.790733   7.218484
    37  H    3.890256   5.273188  11.379122   7.234347   7.551244
    38  H    2.916285   4.203105  11.176192   7.075282   7.793923
    39  H    2.731045   4.060153  10.509235   6.171700   6.703021
    40  H    1.071266   2.111335   9.398248   5.209005   6.263402
    41  H    2.127147   1.076059   8.113559   4.497073   6.050728
    42  X    3.703773   2.426259   6.267404   3.939343   5.637987
    43  X    3.889785   2.532784   7.259077   4.621645   6.377327
    44  X    7.817153   6.796898  11.444235   9.738674  11.498339
    45  O    5.356196   4.156860   8.754638   6.828667   8.577026
    46  H    5.405837   4.359717   9.624214   7.463974   9.189846
    47  H    6.251989   5.013073   8.947974   7.388500   9.151622
                   26         27         28         29         30
    26  H    0.000000
    27  H    5.942230   0.000000
    28  H    5.244835   1.676824   0.000000
    29  H    5.571577   9.712542   9.797042   0.000000
    30  H    5.652405   5.507855   6.318984   5.539644   0.000000
    31  H    6.826672   7.932582   8.675533   4.298133   2.477184
    32  H    3.356034   8.115855   7.930797   3.438259   5.951332
    33  H    3.698020   9.199512   8.610101   5.249062   8.065221
    34  H    6.299649  11.944912  10.992931   8.008204  11.342248
    35  H    4.774063  10.296122   9.411202   7.106820   9.879367
    36  H    5.986734  11.587599  10.855694   6.883094  10.506693
    37  H    6.958242  12.830491  11.867488   7.871942  11.670654
    38  H    7.023712  12.962119  12.191896   6.653375  11.059252
    39  H    6.289714  12.168899  11.271389   6.790305  10.580780
    40  H    5.677798  11.440834  10.797865   4.785148   9.009205
    41  H    5.415367  10.536749  10.210438   2.693550   7.144578
    42  X    4.579310   8.867423   8.875871   0.994787   5.083106
    43  X    5.720446   9.937158   9.913235   1.500001   5.731650
    44  X   10.566094  14.255885  14.574341   5.000001   9.221560
    45  O    7.603874  11.516467  11.719383   2.035400   6.839451
    46  H    8.184299  12.356982  12.504163   2.715471   7.774943
    47  H    8.238007  11.758426  12.073044   2.715472   6.804227
                   31         32         33         34         35
    31  H    0.000000
    32  H    5.972398   0.000000
    33  H    8.289999   2.409846   0.000000
    34  H   11.546376   5.896112   3.562406   0.000000
    35  H   10.268686   4.511147   2.122143   1.740261   0.000000
    36  H   10.497748   4.708593   2.526134   1.759527   1.761568
    37  H   11.658678   6.616560   4.665095   2.118856   3.393135
    38  H   10.702368   5.987823   4.480088   3.124824   3.983796
    39  H   10.496441   6.107110   4.652107   3.400854   4.016855
    40  H    8.616324   4.898694   4.282479   4.662034   4.668237
    41  H    6.401765   4.242634   4.895015   6.613733   6.118208
    42  X    4.297446   2.675008   4.555170   7.474614   6.438067
    43  X    4.593151   4.361011   5.853587   8.236652   7.471358
    44  X    6.962586   8.077598   9.577069  11.645993  11.225375
    45  O    4.965247   5.247488   6.902164   9.338229   8.672264
    46  H    5.905127   5.687175   7.103246   9.269733   8.761302
    47  H    4.695308   5.975585   7.763103  10.276181   9.575846
                   36         37         38         39         40
    36  H    0.000000
    37  H    3.149493   0.000000
    38  H    3.183835   1.759807   0.000000
    39  H    3.989113   1.740665   1.761726   0.000000
    40  H    4.452499   3.559365   2.500359   2.129375   0.000000
    41  H    5.966801   5.897593   4.719343   4.505150   2.411481
    42  X    6.423266   7.471198   6.431688   6.414499   4.536432
    43  X    7.376792   7.765228   6.578974   6.427221   4.355369
    44  X   10.397326  11.083586   9.424505  10.051091   8.032714
    45  O    8.127962   8.984191   7.508012   7.901224   5.814545
    46  H    8.044305   8.821676   7.246456   7.800573   5.757036
    47  H    9.059253   9.914505   8.436499   8.793791   6.689427
                   41         42         43         44         45
    41  H    0.000000
    42  X    2.639185   0.000000
    43  X    1.957975   1.799888   0.000000
    44  X    6.219835   5.994788   5.220159   0.000000
    45  O    3.743798   3.030187   2.528410   2.964601   0.000000
    46  H    3.930099   3.681491   3.125535   2.507555   0.947400
    47  H    4.530205   3.681492   3.078738   2.507556   0.947400
                   46         47
    46  H    0.000000
    47  H    1.508660   0.000000
 Symmetry turned off by external request.
 Stoichiometry    C16H20N6OS
 Framework group  C1[X(C16H20N6OS)]
 Deg. of freedom   126
 Full point group                 C1      NOp   1
 Rotational constants (GHZ):      0.2798326      0.1221226      0.0885420
 Standard basis: 6-31G(d) (6D, 7F)
 Integral buffers will be    131072 words long.
 Raffenetti 1 integral format.
 Two-electron integral symmetry is turned off.
   404 basis functions,   776 primitive gaussians,   404 cartesian basis functions
    91 alpha electrons       91 beta electrons
       nuclear repulsion energy      2118.9271598673 Hartrees.
 NAtoms=   44 NActive=   44 NUniq=   44 SFac= 7.50D-01 NAtFMM=   80 NAOKFM=F Big=F
 One-electron integrals computed using PRISM.
 NBasis=   404 RedAO= T  NBF=   404
 NBsUse=   404 1.00D-06 NBFU=   404
 Harris functional with IExCor=  205 diagonalized for initial guess.
 ExpMin= 1.17D-01 ExpMax= 2.19D+04 ExpMxC= 3.30D+03 IAcc=1 IRadAn=         1 AccDes= 0.00D+00
 HarFok:  IExCor=  205 AccDes= 0.00D+00 IRadAn=         1 IDoV= 1
 ScaDFX=  1.000000  1.000000  1.000000  1.000000
 FoFCou: FMM=F IPFlag=           0 FMFlag=      100000 FMFlg1=           0
         NFxFlg=           0 DoJE=T BraDBF=F KetDBF=T FulRan=T
         Omega=  0.000000  0.000000  1.000000  0.000000  0.000000 ICntrl=     500 IOpCl=  0
         NMat0=    1 NMatS0=    1 NMatT0=    0 NMatD0=    1 NMtDS0=    0 NMtDT0=    0
         I1Cent=           4 NGrid=           0.
 Symmetry not used in FoFCou.
 Requested convergence on RMS density matrix=1.00D-08 within 128 cycles.
 Requested convergence on MAX density matrix=1.00D-06.
 Requested convergence on             energy=1.00D-06.
 No special actions if energy rises.
 Integral accuracy reduced to 1.0D-05 until final iterations.
 Initial convergence to 1.0D-05 achieved.  Increase integral accuracy.
 SCF Done:  E(RHF) =  -1416.59411770     A.U. after   16 cycles
             Convg  =    0.5830D-08             -V/T =  2.0010

 **********************************************************************

            Population analysis using the SCF density.

 **********************************************************************

 Alpha  occ. eigenvalues --  -91.96746 -20.57143 -15.58907 -15.56220 -15.55093
 Alpha  occ. eigenvalues --  -15.54251 -15.53391 -15.53287 -11.34564 -11.32776
 Alpha  occ. eigenvalues --  -11.29399 -11.27400 -11.27265 -11.26251 -11.24699
 Alpha  occ. eigenvalues --  -11.24667 -11.24482 -11.24375 -11.21737 -11.21552
 Alpha  occ. eigenvalues --  -11.20970 -11.20944 -11.20756 -11.19824  -8.97885
 Alpha  occ. eigenvalues --   -6.66155  -6.66041  -6.65860  -1.35923  -1.31958
 Alpha  occ. eigenvalues --   -1.30659  -1.24851  -1.21636  -1.20871  -1.18182
 Alpha  occ. eigenvalues --   -1.11970  -1.07261  -1.02884  -1.01942  -1.00610
 Alpha  occ. eigenvalues --   -0.98640  -0.96369  -0.92252  -0.89168  -0.87171
 Alpha  occ. eigenvalues --   -0.84825  -0.81828  -0.79258  -0.77458  -0.76199
 Alpha  occ. eigenvalues --   -0.72623  -0.71998  -0.71759  -0.69067  -0.68510
 Alpha  occ. eigenvalues --   -0.65912  -0.64537  -0.64116  -0.63261  -0.62632
 Alpha  occ. eigenvalues --   -0.61127  -0.59822  -0.58790  -0.58432  -0.58300
 Alpha  occ. eigenvalues --   -0.57572  -0.57149  -0.56476  -0.55381  -0.55276
 Alpha  occ. eigenvalues --   -0.54442  -0.54253  -0.52530  -0.52399  -0.51683
 Alpha  occ. eigenvalues --   -0.51174  -0.49592  -0.48004  -0.47566  -0.46555
 Alpha  occ. eigenvalues --   -0.45423  -0.43441  -0.41780  -0.41101  -0.39390
 Alpha  occ. eigenvalues --   -0.37970  -0.37392  -0.32303  -0.31666  -0.28524
 Alpha  occ. eigenvalues --   -0.25867
 Alpha virt. eigenvalues --    0.10309   0.15365   0.15831   0.16410   0.17942
 Alpha virt. eigenvalues --    0.20341   0.20558   0.23028   0.23648   0.25588
 Alpha virt. eigenvalues --    0.26884   0.27142   0.27984   0.28123   0.28331
 Alpha virt. eigenvalues --    0.29970   0.30192   0.30332   0.31809   0.32755
 Alpha virt. eigenvalues --    0.33762   0.33843   0.34133   0.35335   0.35621
 Alpha virt. eigenvalues --    0.35966   0.36547   0.36963   0.38607   0.39769
 Alpha virt. eigenvalues --    0.40323   0.41159   0.41677   0.42618   0.43804
 Alpha virt. eigenvalues --    0.45415   0.46087   0.48394   0.48481   0.50083
 Alpha virt. eigenvalues --    0.52407   0.53259   0.53530   0.54422   0.55559
 Alpha virt. eigenvalues --    0.57584   0.58468   0.58861   0.60072   0.60880
 Alpha virt. eigenvalues --    0.62558   0.64280   0.68317   0.68890   0.69771
 Alpha virt. eigenvalues --    0.70871   0.71381   0.73701   0.74819   0.75095
 Alpha virt. eigenvalues --    0.75711   0.76697   0.77780   0.78112   0.78711
 Alpha virt. eigenvalues --    0.79271   0.80173   0.80558   0.80891   0.82438
 Alpha virt. eigenvalues --    0.83129   0.83608   0.84070   0.84860   0.85411
 Alpha virt. eigenvalues --    0.86005   0.86275   0.87475   0.88103   0.89770
 Alpha virt. eigenvalues --    0.90522   0.91753   0.92469   0.93402   0.94446
 Alpha virt. eigenvalues --    0.94851   0.95474   0.96063   0.97215   0.97810
 Alpha virt. eigenvalues --    0.98394   0.99146   0.99408   1.00140   1.00669
 Alpha virt. eigenvalues --    1.01765   1.04288   1.05121   1.05543   1.06939
 Alpha virt. eigenvalues --    1.07946   1.08462   1.09896   1.10579   1.10931
 Alpha virt. eigenvalues --    1.12066   1.12652   1.13158   1.13234   1.13583
 Alpha virt. eigenvalues --    1.13867   1.14421   1.15434   1.15807   1.15996
 Alpha virt. eigenvalues --    1.16258   1.16406   1.17065   1.18042   1.18325
 Alpha virt. eigenvalues --    1.19292   1.19875   1.20384   1.21092   1.21593
 Alpha virt. eigenvalues --    1.22055   1.22325   1.23404   1.24212   1.25311
 Alpha virt. eigenvalues --    1.25711   1.25935   1.26924   1.27870   1.28936
 Alpha virt. eigenvalues --    1.29383   1.29938   1.30242   1.31414   1.31973
 Alpha virt. eigenvalues --    1.32846   1.34049   1.34252   1.35961   1.37416
 Alpha virt. eigenvalues --    1.38323   1.40036   1.42025   1.42724   1.44241
 Alpha virt. eigenvalues --    1.45291   1.46011   1.47110   1.48497   1.48805
 Alpha virt. eigenvalues --    1.50049   1.52169   1.53255   1.54751   1.57387
 Alpha virt. eigenvalues --    1.60451   1.61249   1.63151   1.63360   1.65436
 Alpha virt. eigenvalues --    1.65562   1.66581   1.67049   1.69648   1.71799
 Alpha virt. eigenvalues --    1.75002   1.75500   1.76315   1.76665   1.77716
 Alpha virt. eigenvalues --    1.78494   1.79039   1.80068   1.80907   1.81854
 Alpha virt. eigenvalues --    1.82685   1.85743   1.86187   1.87179   1.90028
 Alpha virt. eigenvalues --    1.90689   1.91927   1.94018   2.01664   2.01771
 Alpha virt. eigenvalues --    2.03365   2.04921   2.05238   2.08543   2.10792
 Alpha virt. eigenvalues --    2.11279   2.13321   2.13778   2.14643   2.16070
 Alpha virt. eigenvalues --    2.16429   2.18893   2.19997   2.20442   2.23342
 Alpha virt. eigenvalues --    2.23653   2.24430   2.25472   2.25766   2.27415
 Alpha virt. eigenvalues --    2.27788   2.29141   2.31482   2.31941   2.34370
 Alpha virt. eigenvalues --    2.36202   2.36911   2.38576   2.39889   2.41348
 Alpha virt. eigenvalues --    2.42418   2.43445   2.47939   2.48423   2.49208
 Alpha virt. eigenvalues --    2.49945   2.50325   2.51680   2.51936   2.54034
 Alpha virt. eigenvalues --    2.55606   2.56314   2.58134   2.58548   2.59696
 Alpha virt. eigenvalues --    2.60035   2.60560   2.62368   2.62757   2.64322
 Alpha virt. eigenvalues --    2.65708   2.65921   2.67706   2.68215   2.69491
 Alpha virt. eigenvalues --    2.71171   2.72978   2.74820   2.76484   2.79184
 Alpha virt. eigenvalues --    2.79694   2.81865   2.83138   2.84752   2.87384
 Alpha virt. eigenvalues --    2.88231   2.88983   2.93627   2.94286   2.95668
 Alpha virt. eigenvalues --    2.95958   2.97162   2.97504   2.98917   3.00829
 Alpha virt. eigenvalues --    3.01955   3.02737   3.03229   3.05996   3.08159
 Alpha virt. eigenvalues --    3.09465   3.12792   3.14871   3.15490   3.17096
 Alpha virt. eigenvalues --    3.22662   3.24729   3.26920   3.28865   3.30413
 Alpha virt. eigenvalues --    3.36092   3.41376   3.42370   3.53234   3.60252
 Alpha virt. eigenvalues --    3.61607   3.74212   3.87561   3.88644   4.10375
 Alpha virt. eigenvalues --    4.27782   4.37746   4.48913   4.51641   4.53178
 Alpha virt. eigenvalues --    4.54796   4.56239   4.57608   4.59110   4.63321
 Alpha virt. eigenvalues --    4.67689   4.69558   4.70626   4.72895   4.77499
 Alpha virt. eigenvalues --    4.78929   4.81360   4.82303   4.83938   4.93078
 Alpha virt. eigenvalues --    4.96311   5.09712   5.23637
          Condensed to atoms (all electrons):
              1          2          3          4          5          6
     1  N    6.916356  -0.079860   0.000000   0.000000   0.000000   0.000000
     2  N   -0.079860   7.072025   0.000000   0.000000   0.000000   0.000000
     3  N    0.000000   0.000000   6.949731  -0.104590   0.000000  -0.102149
     4  N    0.000000   0.000000  -0.104590   7.435191   0.000000  -0.105497
     5  N    0.000000   0.000000   0.000000   0.000000   7.246755   0.000000
     6  N    0.000000   0.000000  -0.102149  -0.105497   0.000000   7.065658
     7  C   -0.062929  -0.000060  -0.000003   0.000023   0.000000  -0.012581
     8  C    0.431237   0.003386   0.000021  -0.000005   0.000000  -0.002145
     9  C    0.539801   0.303578   0.000000   0.000000   0.000000  -0.000018
    10  C   -0.089383   0.002515  -0.000127  -0.000150   0.000000  -0.085786
    11  C    0.004849  -0.000031  -0.026658   0.002210   0.000000   0.507760
    12  C   -0.000121   0.000000  -0.052057   0.000454   0.000000  -0.072151
    13  C    0.000001   0.000000   0.488455   0.002306   0.000000  -0.014687
    14  C   -0.000002   0.000000   0.511365   0.332127   0.000000   0.496310
    15  C    0.000000   0.000000   0.002747   0.209603   0.000131   0.002568
    16  C    0.000000   0.000000  -0.000012  -0.050663   0.003563  -0.002737
    17  C    0.000000   0.000000  -0.000001   0.004900  -0.060254  -0.000315
    18  C    0.000000   0.000000   0.000000   0.000196   0.287585   0.000021
    19  C    0.000000   0.000000   0.000000   0.000000   0.267699   0.000000
    20  C    0.000000   0.000000   0.000000   0.000000   0.269325   0.000000
    21  C    0.000000   0.000000   0.000000   0.004277  -0.061215  -0.000038
    22  C    0.000000   0.000000  -0.000119  -0.059426   0.003654  -0.000184
    23  S   -0.080497  -0.067781  -0.000001   0.000002   0.000000   0.002293
    24  H    0.002895   0.000001   0.000013  -0.000173   0.000000   0.002976
    25  H   -0.001037  -0.000016   0.000000  -0.000001   0.000000   0.000567
    26  H    0.000544   0.000000   0.000000   0.000002  -0.000003  -0.000009
    27  H    0.002444   0.331044   0.000000   0.000000   0.000000   0.000000
    28  H    0.004877   0.322152   0.000000   0.000000   0.000000   0.000000
    29  H    0.000000   0.000000   0.003159   0.294173   0.000000   0.002698
    30  H   -0.000005   0.000000   0.002695   0.000016   0.000000   0.002540
    31  H    0.000000   0.000000  -0.044295  -0.000046   0.000000  -0.000593
    32  H    0.000000   0.000000  -0.000016  -0.003638  -0.000070   0.001872
    33  H    0.000000   0.000000   0.000000  -0.000105  -0.004016  -0.000007
    34  H    0.000000   0.000000   0.000000   0.000000  -0.036968   0.000000
    35  H    0.000000   0.000000   0.000000   0.000000  -0.044737   0.000000
    36  H    0.000000   0.000000   0.000000   0.000000  -0.057916   0.000000
    37  H    0.000000   0.000000   0.000000   0.000000  -0.037054   0.000000
    38  H    0.000000   0.000000   0.000000   0.000000  -0.058394   0.000000
    39  H    0.000000   0.000000   0.000000   0.000000  -0.044738   0.000000
    40  H    0.000000   0.000000   0.000000  -0.000113  -0.004215   0.000000
    41  H    0.000000   0.000000  -0.000022   0.000408  -0.000072  -0.000025
    42  O    0.000000   0.000000   0.000262  -0.008233   0.000000  -0.000003
    43  H    0.000000   0.000000   0.000019   0.000422   0.000000   0.000000
    44  H    0.000000   0.000000   0.000533   0.000376   0.000000   0.000001
              7          8          9         10         11         12
     1  N   -0.062929   0.431237   0.539801  -0.089383   0.004849  -0.000121
     2  N   -0.000060   0.003386   0.303578   0.002515  -0.000031   0.000000
     3  N   -0.000003   0.000021   0.000000  -0.000127  -0.026658  -0.052057
     4  N    0.000023  -0.000005   0.000000  -0.000150   0.002210   0.000454
     5  N    0.000000   0.000000   0.000000   0.000000   0.000000   0.000000
     6  N   -0.012581  -0.002145  -0.000018  -0.085786   0.507760  -0.072151
     7  C    5.097311   0.355744   0.006431  -0.056524   0.000324   0.000108
     8  C    0.355744   4.565630  -0.088382   0.594872  -0.009556   0.002942
     9  C    0.006431  -0.088382   4.617141  -0.053479   0.002585  -0.000042
    10  C   -0.056524   0.594872  -0.053479   5.494987   0.367121  -0.073664
    11  C    0.000324  -0.009556   0.002585   0.367121   4.378976   0.509330
    12  C    0.000108   0.002942  -0.000042  -0.073664   0.509330   5.252591
    13  C    0.000002  -0.000091  -0.000003   0.003349  -0.045261   0.512134
    14  C   -0.000338   0.000067   0.000002   0.005055  -0.049168  -0.028185
    15  C   -0.000125  -0.000032   0.000000   0.000030   0.000061   0.000003
    16  C   -0.000444  -0.000008   0.000000   0.000063  -0.000185  -0.000004
    17  C   -0.000150   0.000009   0.000000   0.000002   0.000000   0.000000
    18  C   -0.000002   0.000001   0.000000   0.000000   0.000000   0.000000
    19  C    0.000000   0.000000   0.000000   0.000000   0.000000   0.000000
    20  C    0.000000   0.000000   0.000000   0.000000   0.000000   0.000000
    21  C    0.000003   0.000000   0.000000   0.000000   0.000000   0.000000
    22  C   -0.000043   0.000000   0.000000   0.000001  -0.000013  -0.000002
    23  S    0.002657  -0.083181   0.337383   0.275752  -0.042200  -0.000016
    24  H    0.391466  -0.030709  -0.000127  -0.004358   0.000349   0.000073
    25  H    0.382722  -0.039496   0.000072   0.004252  -0.000282   0.000003
    26  H    0.388266  -0.034756  -0.000175  -0.003715   0.000970   0.000016
    27  H    0.000002  -0.000166  -0.026261   0.000047  -0.000001   0.000000
    28  H   -0.000020   0.000295  -0.023132  -0.000076   0.000000   0.000000
    29  H    0.000000   0.000000   0.000000   0.000005  -0.000062   0.000002
    30  H   -0.000001   0.000016   0.000016  -0.000967  -0.025573   0.374195
    31  H    0.000000   0.000001   0.000000  -0.000057   0.002486  -0.053276
    32  H    0.000010   0.000001   0.000000  -0.000025  -0.000009   0.000008
    33  H    0.000000   0.000000   0.000000   0.000000   0.000000   0.000000
    34  H    0.000000   0.000000   0.000000   0.000000   0.000000   0.000000
    35  H    0.000000   0.000000   0.000000   0.000000   0.000000   0.000000
    36  H    0.000000   0.000000   0.000000   0.000000   0.000000   0.000000
    37  H    0.000000   0.000000   0.000000   0.000000   0.000000   0.000000
    38  H    0.000000   0.000000   0.000000   0.000000   0.000000   0.000000
    39  H    0.000000   0.000000   0.000000   0.000000   0.000000   0.000000
    40  H    0.000000   0.000000   0.000000   0.000000   0.000000   0.000000
    41  H    0.000000   0.000000   0.000000   0.000000   0.000000   0.000000
    42  O    0.000000   0.000000   0.000000   0.000000   0.000000   0.000000
    43  H    0.000000   0.000000   0.000000   0.000000   0.000000   0.000000
    44  H    0.000000   0.000000   0.000000   0.000000   0.000000   0.000001
             13         14         15         16         17         18
     1  N    0.000001  -0.000002   0.000000   0.000000   0.000000   0.000000
     2  N    0.000000   0.000000   0.000000   0.000000   0.000000   0.000000
     3  N    0.488455   0.511365   0.002747  -0.000012  -0.000001   0.000000
     4  N    0.002306   0.332127   0.209603  -0.050663   0.004900   0.000196
     5  N    0.000000   0.000000   0.000131   0.003563  -0.060254   0.287585
     6  N   -0.014687   0.496310   0.002568  -0.002737  -0.000315   0.000021
     7  C    0.000002  -0.000338  -0.000125  -0.000444  -0.000150  -0.000002
     8  C   -0.000091   0.000067  -0.000032  -0.000008   0.000009   0.000001
     9  C   -0.000003   0.000002   0.000000   0.000000   0.000000   0.000000
    10  C    0.003349   0.005055   0.000030   0.000063   0.000002   0.000000
    11  C   -0.045261  -0.049168   0.000061  -0.000185   0.000000   0.000000
    12  C    0.512134  -0.028185   0.000003  -0.000004   0.000000   0.000000
    13  C    4.616233  -0.070468  -0.000057   0.000001   0.000000   0.000000
    14  C   -0.070468   3.986152  -0.030380  -0.001594  -0.000080   0.000015
    15  C   -0.000057  -0.030380   4.530442   0.588885  -0.044816  -0.023619
    16  C    0.000001  -0.001594   0.588885   4.868236   0.527396  -0.033176
    17  C    0.000000  -0.000080  -0.044816   0.527396   5.027442   0.564647
    18  C    0.000000   0.000015  -0.023619  -0.033176   0.564647   4.426032
    19  C    0.000000   0.000000   0.000011  -0.000259  -0.009819  -0.046716
    20  C    0.000000   0.000000   0.000010  -0.000066   0.002412  -0.047519
    21  C    0.000000  -0.000052  -0.048389  -0.039802  -0.040112   0.575953
    22  C    0.000004   0.001293   0.594188  -0.048837  -0.041036  -0.034377
    23  S    0.000292  -0.000109   0.000000   0.000000   0.000000   0.000000
    24  H   -0.000005   0.000241   0.000753   0.000079  -0.000130  -0.000031
    25  H    0.000000   0.000017   0.000006   0.000022   0.000005   0.000000
    26  H    0.000000  -0.000123  -0.000047   0.000921   0.001122   0.000034
    27  H    0.000000   0.000000   0.000000   0.000000   0.000000   0.000000
    28  H    0.000000   0.000000   0.000000   0.000000   0.000000   0.000000
    29  H    0.000401  -0.015859  -0.015513   0.001214  -0.000023   0.000002
    30  H   -0.022281   0.000453   0.000000   0.000000   0.000000   0.000000
    31  H    0.407719   0.003629   0.000003   0.000000   0.000000   0.000000
    32  H   -0.000002   0.002293  -0.023116   0.376498  -0.031861   0.001605
    33  H    0.000000  -0.000003   0.001634  -0.025854   0.379993  -0.031458
    34  H    0.000000   0.000000   0.000000   0.000007   0.000478   0.003328
    35  H    0.000000   0.000000  -0.000007   0.000154  -0.001306  -0.003355
    36  H    0.000000   0.000000  -0.000006  -0.000237   0.002217   0.002298
    37  H    0.000000   0.000000   0.000000   0.000002  -0.000053   0.003266
    38  H    0.000000   0.000000  -0.000005  -0.000020   0.000216   0.002248
    39  H    0.000000   0.000000  -0.000009   0.000006  -0.000059  -0.003132
    40  H    0.000000   0.000000   0.001735   0.000273   0.002850  -0.030659
    41  H    0.000000   0.000229  -0.030852   0.003446   0.000233   0.001665
    42  O    0.000016  -0.000273   0.000315  -0.000001   0.000000   0.000000
    43  H    0.000000   0.000012  -0.000018   0.000000   0.000000   0.000000
    44  H   -0.000007   0.000040  -0.000018   0.000000   0.000000   0.000000
             19         20         21         22         23         24
     1  N    0.000000   0.000000   0.000000   0.000000  -0.080497   0.002895
     2  N    0.000000   0.000000   0.000000   0.000000  -0.067781   0.000001
     3  N    0.000000   0.000000   0.000000  -0.000119  -0.000001   0.000013
     4  N    0.000000   0.000000   0.004277  -0.059426   0.000002  -0.000173
     5  N    0.267699   0.269325  -0.061215   0.003654   0.000000   0.000000
     6  N    0.000000   0.000000  -0.000038  -0.000184   0.002293   0.002976
     7  C    0.000000   0.000000   0.000003  -0.000043   0.002657   0.391466
     8  C    0.000000   0.000000   0.000000   0.000000  -0.083181  -0.030709
     9  C    0.000000   0.000000   0.000000   0.000000   0.337383  -0.000127
    10  C    0.000000   0.000000   0.000000   0.000001   0.275752  -0.004358
    11  C    0.000000   0.000000   0.000000  -0.000013  -0.042200   0.000349
    12  C    0.000000   0.000000   0.000000  -0.000002  -0.000016   0.000073
    13  C    0.000000   0.000000   0.000000   0.000004   0.000292  -0.000005
    14  C    0.000000   0.000000  -0.000052   0.001293  -0.000109   0.000241
    15  C    0.000011   0.000010  -0.048389   0.594188   0.000000   0.000753
    16  C   -0.000259  -0.000066  -0.039802  -0.048837   0.000000   0.000079
    17  C   -0.009819   0.002412  -0.040112  -0.041036   0.000000  -0.000130
    18  C   -0.046716  -0.047519   0.575953  -0.034377   0.000000  -0.000031
    19  C    4.929833  -0.051754   0.002293  -0.000073   0.000000   0.000000
    20  C   -0.051754   4.928758  -0.010048  -0.000282   0.000000   0.000000
    21  C    0.002293  -0.010048   5.019411   0.523628   0.000000   0.000013
    22  C   -0.000073  -0.000282   0.523628   4.907928   0.000000   0.000292
    23  S    0.000000   0.000000   0.000000   0.000000  15.389181   0.000097
    24  H    0.000000   0.000000   0.000013   0.000292   0.000097   0.472291
    25  H    0.000000   0.000000  -0.000001   0.000000  -0.000047  -0.023661
    26  H   -0.000001   0.000000  -0.000013  -0.000043   0.000021  -0.022414
    27  H    0.000000   0.000000   0.000000   0.000000   0.000279   0.000000
    28  H    0.000000   0.000000   0.000000   0.000000   0.003532   0.000000
    29  H    0.000000   0.000000   0.000070  -0.001412   0.000000   0.000000
    30  H    0.000000   0.000000   0.000000   0.000000   0.000250  -0.000002
    31  H    0.000000   0.000000   0.000000   0.000000  -0.000013   0.000000
    32  H   -0.000006   0.000002   0.000211   0.003620   0.000000  -0.000005
    33  H    0.000337  -0.000059   0.002800   0.000357   0.000000  -0.000001
    34  H    0.403899  -0.007557  -0.000050   0.000002   0.000000   0.000000
    35  H    0.405107   0.003955  -0.000088   0.000004   0.000000   0.000000
    36  H    0.390532   0.000636   0.000312  -0.000019   0.000000   0.000000
    37  H   -0.007514   0.404208   0.000497   0.000008   0.000000   0.000000
    38  H    0.000559   0.390206   0.002249  -0.000218   0.000000   0.000000
    39  H    0.004004   0.404877  -0.001080   0.000120   0.000000   0.000000
    40  H   -0.000062   0.000422   0.379636  -0.026282   0.000000   0.000000
    41  H    0.000002  -0.000005  -0.029591   0.376690   0.000000   0.000000
    42  O    0.000000   0.000000   0.000001   0.000078   0.000000   0.000000
    43  H    0.000000   0.000000   0.000000   0.000017   0.000000   0.000000
    44  H    0.000000   0.000000   0.000000  -0.000001   0.000000   0.000000
             25         26         27         28         29         30
     1  N   -0.001037   0.000544   0.002444   0.004877   0.000000  -0.000005
     2  N   -0.000016   0.000000   0.331044   0.322152   0.000000   0.000000
     3  N    0.000000   0.000000   0.000000   0.000000   0.003159   0.002695
     4  N   -0.000001   0.000002   0.000000   0.000000   0.294173   0.000016
     5  N    0.000000  -0.000003   0.000000   0.000000   0.000000   0.000000
     6  N    0.000567  -0.000009   0.000000   0.000000   0.002698   0.002540
     7  C    0.382722   0.388266   0.000002  -0.000020   0.000000  -0.000001
     8  C   -0.039496  -0.034756  -0.000166   0.000295   0.000000   0.000016
     9  C    0.000072  -0.000175  -0.026261  -0.023132   0.000000   0.000016
    10  C    0.004252  -0.003715   0.000047  -0.000076   0.000005  -0.000967
    11  C   -0.000282   0.000970  -0.000001   0.000000  -0.000062  -0.025573
    12  C    0.000003   0.000016   0.000000   0.000000   0.000002   0.374195
    13  C    0.000000   0.000000   0.000000   0.000000   0.000401  -0.022281
    14  C    0.000017  -0.000123   0.000000   0.000000  -0.015859   0.000453
    15  C    0.000006  -0.000047   0.000000   0.000000  -0.015513   0.000000
    16  C    0.000022   0.000921   0.000000   0.000000   0.001214   0.000000
    17  C    0.000005   0.001122   0.000000   0.000000  -0.000023   0.000000
    18  C    0.000000   0.000034   0.000000   0.000000   0.000002   0.000000
    19  C    0.000000  -0.000001   0.000000   0.000000   0.000000   0.000000
    20  C    0.000000   0.000000   0.000000   0.000000   0.000000   0.000000
    21  C   -0.000001  -0.000013   0.000000   0.000000   0.000070   0.000000
    22  C    0.000000  -0.000043   0.000000   0.000000  -0.001412   0.000000
    23  S   -0.000047   0.000021   0.000279   0.003532   0.000000   0.000250
    24  H   -0.023661  -0.022414   0.000000   0.000000   0.000000  -0.000002
    25  H    0.522569  -0.025891   0.000000   0.000008   0.000000   0.000000
    26  H   -0.025891   0.503955   0.000000   0.000000   0.000000   0.000000
    27  H    0.000000   0.000000   0.323778  -0.016940   0.000000   0.000000
    28  H    0.000008   0.000000  -0.016940   0.313388   0.000000   0.000000
    29  H    0.000000   0.000000   0.000000   0.000000   0.230777  -0.000001
    30  H    0.000000   0.000000   0.000000   0.000000  -0.000001   0.452137
    31  H    0.000000   0.000000   0.000000   0.000000  -0.000027  -0.000109
    32  H    0.000000   0.000064   0.000000   0.000000  -0.000048   0.000000
    33  H    0.000000   0.000039   0.000000   0.000000   0.000001   0.000000
    34  H    0.000000   0.000000   0.000000   0.000000   0.000000   0.000000
    35  H    0.000000   0.000004   0.000000   0.000000   0.000000   0.000000
    36  H    0.000000   0.000000   0.000000   0.000000   0.000000   0.000000
    37  H    0.000000   0.000000   0.000000   0.000000   0.000000   0.000000
    38  H    0.000000   0.000000   0.000000   0.000000   0.000000   0.000000
    39  H    0.000000   0.000000   0.000000   0.000000   0.000000   0.000000
    40  H    0.000000   0.000000   0.000000   0.000000  -0.000002   0.000000
    41  H    0.000000   0.000000   0.000000   0.000000   0.000980   0.000000
    42  O    0.000000   0.000000   0.000000   0.000000   0.017052   0.000000
    43  H    0.000000   0.000000   0.000000   0.000000  -0.000360   0.000000
    44  H    0.000000   0.000000   0.000000   0.000000  -0.000314   0.000000
             31         32         33         34         35         36
     1  N    0.000000   0.000000   0.000000   0.000000   0.000000   0.000000
     2  N    0.000000   0.000000   0.000000   0.000000   0.000000   0.000000
     3  N   -0.044295  -0.000016   0.000000   0.000000   0.000000   0.000000
     4  N   -0.000046  -0.003638  -0.000105   0.000000   0.000000   0.000000
     5  N    0.000000  -0.000070  -0.004016  -0.036968  -0.044737  -0.057916
     6  N   -0.000593   0.001872  -0.000007   0.000000   0.000000   0.000000
     7  C    0.000000   0.000010   0.000000   0.000000   0.000000   0.000000
     8  C    0.000001   0.000001   0.000000   0.000000   0.000000   0.000000
     9  C    0.000000   0.000000   0.000000   0.000000   0.000000   0.000000
    10  C   -0.000057  -0.000025   0.000000   0.000000   0.000000   0.000000
    11  C    0.002486  -0.000009   0.000000   0.000000   0.000000   0.000000
    12  C   -0.053276   0.000008   0.000000   0.000000   0.000000   0.000000
    13  C    0.407719  -0.000002   0.000000   0.000000   0.000000   0.000000
    14  C    0.003629   0.002293  -0.000003   0.000000   0.000000   0.000000
    15  C    0.000003  -0.023116   0.001634   0.000000  -0.000007  -0.000006
    16  C    0.000000   0.376498  -0.025854   0.000007   0.000154  -0.000237
    17  C    0.000000  -0.031861   0.379993   0.000478  -0.001306   0.002217
    18  C    0.000000   0.001605  -0.031458   0.003328  -0.003355   0.002298
    19  C    0.000000  -0.000006   0.000337   0.403899   0.405107   0.390532
    20  C    0.000000   0.000002  -0.000059  -0.007557   0.003955   0.000636
    21  C    0.000000   0.000211   0.002800  -0.000050  -0.000088   0.000312
    22  C    0.000000   0.003620   0.000357   0.000002   0.000004  -0.000019
    23  S   -0.000013   0.000000   0.000000   0.000000   0.000000   0.000000
    24  H    0.000000  -0.000005  -0.000001   0.000000   0.000000   0.000000
    25  H    0.000000   0.000000   0.000000   0.000000   0.000000   0.000000
    26  H    0.000000   0.000064   0.000039   0.000000   0.000004   0.000000
    27  H    0.000000   0.000000   0.000000   0.000000   0.000000   0.000000
    28  H    0.000000   0.000000   0.000000   0.000000   0.000000   0.000000
    29  H   -0.000027  -0.000048   0.000001   0.000000   0.000000   0.000000
    30  H   -0.000109   0.000000   0.000000   0.000000   0.000000   0.000000
    31  H    0.480770   0.000000   0.000000   0.000000   0.000000   0.000000
    32  H    0.000000   0.459103  -0.001922   0.000000  -0.000001  -0.000002
    33  H    0.000000  -0.001922   0.479294   0.000168  -0.002182  -0.000146
    34  H    0.000000   0.000000   0.000168   0.518693  -0.025513  -0.030869
    35  H    0.000000  -0.000001  -0.002182  -0.025513   0.535556  -0.044384
    36  H    0.000000  -0.000002  -0.000146  -0.030869  -0.044384   0.579450
    37  H    0.000000   0.000000   0.000000   0.001851   0.000250  -0.000065
    38  H    0.000000   0.000000   0.000005  -0.000046  -0.000365   0.002446
    39  H    0.000000   0.000000  -0.000001   0.000242   0.000022  -0.000362
    40  H    0.000000   0.000011  -0.000126   0.000000  -0.000003   0.000009
    41  H    0.000000  -0.000131   0.000013   0.000000   0.000000   0.000000
    42  O    0.000002   0.000000   0.000000   0.000000   0.000000   0.000000
    43  H    0.000000   0.000000   0.000000   0.000000   0.000000   0.000000
    44  H   -0.000004   0.000000   0.000000   0.000000   0.000000   0.000000
             37         38         39         40         41         42
     1  N    0.000000   0.000000   0.000000   0.000000   0.000000   0.000000
     2  N    0.000000   0.000000   0.000000   0.000000   0.000000   0.000000
     3  N    0.000000   0.000000   0.000000   0.000000  -0.000022   0.000262
     4  N    0.000000   0.000000   0.000000  -0.000113   0.000408  -0.008233
     5  N   -0.037054  -0.058394  -0.044738  -0.004215  -0.000072   0.000000
     6  N    0.000000   0.000000   0.000000   0.000000  -0.000025  -0.000003
     7  C    0.000000   0.000000   0.000000   0.000000   0.000000   0.000000
     8  C    0.000000   0.000000   0.000000   0.000000   0.000000   0.000000
     9  C    0.000000   0.000000   0.000000   0.000000   0.000000   0.000000
    10  C    0.000000   0.000000   0.000000   0.000000   0.000000   0.000000
    11  C    0.000000   0.000000   0.000000   0.000000   0.000000   0.000000
    12  C    0.000000   0.000000   0.000000   0.000000   0.000000   0.000000
    13  C    0.000000   0.000000   0.000000   0.000000   0.000000   0.000016
    14  C    0.000000   0.000000   0.000000   0.000000   0.000229  -0.000273
    15  C    0.000000  -0.000005  -0.000009   0.001735  -0.030852   0.000315
    16  C    0.000002  -0.000020   0.000006   0.000273   0.003446  -0.000001
    17  C   -0.000053   0.000216  -0.000059   0.002850   0.000233   0.000000
    18  C    0.003266   0.002248  -0.003132  -0.030659   0.001665   0.000000
    19  C   -0.007514   0.000559   0.004004  -0.000062   0.000002   0.000000
    20  C    0.404208   0.390206   0.404877   0.000422  -0.000005   0.000000
    21  C    0.000497   0.002249  -0.001080   0.379636  -0.029591   0.000001
    22  C    0.000008  -0.000218   0.000120  -0.026282   0.376690   0.000078
    23  S    0.000000   0.000000   0.000000   0.000000   0.000000   0.000000
    24  H    0.000000   0.000000   0.000000   0.000000   0.000000   0.000000
    25  H    0.000000   0.000000   0.000000   0.000000   0.000000   0.000000
    26  H    0.000000   0.000000   0.000000   0.000000   0.000000   0.000000
    27  H    0.000000   0.000000   0.000000   0.000000   0.000000   0.000000
    28  H    0.000000   0.000000   0.000000   0.000000   0.000000   0.000000
    29  H    0.000000   0.000000   0.000000  -0.000002   0.000980   0.017052
    30  H    0.000000   0.000000   0.000000   0.000000   0.000000   0.000000
    31  H    0.000000   0.000000   0.000000   0.000000   0.000000   0.000002
    32  H    0.000000   0.000000   0.000000   0.000011  -0.000131   0.000000
    33  H    0.000000   0.000005  -0.000001  -0.000126   0.000013   0.000000
    34  H    0.001851  -0.000046   0.000242   0.000000   0.000000   0.000000
    35  H    0.000250  -0.000365   0.000022  -0.000003   0.000000   0.000000
    36  H   -0.000065   0.002446  -0.000362   0.000009   0.000000   0.000000
    37  H    0.517856  -0.031367  -0.025074   0.000171   0.000000   0.000000
    38  H   -0.031367   0.583139  -0.044749   0.000037  -0.000002   0.000000
    39  H   -0.025074  -0.044749   0.535743  -0.002460   0.000001   0.000000
    40  H    0.000171   0.000037  -0.002460   0.481174  -0.002121   0.000000
    41  H    0.000000  -0.000002   0.000001  -0.002121   0.472602   0.000252
    42  O    0.000000   0.000000   0.000000   0.000000   0.000252   8.333352
    43  H    0.000000   0.000000   0.000000   0.000000  -0.000001   0.265812
    44  H    0.000000   0.000000   0.000000   0.000000  -0.000003   0.268259
             43         44
     1  N    0.000000   0.000000
     2  N    0.000000   0.000000
     3  N    0.000019   0.000533
     4  N    0.000422   0.000376
     5  N    0.000000   0.000000
     6  N    0.000000   0.000001
     7  C    0.000000   0.000000
     8  C    0.000000   0.000000
     9  C    0.000000   0.000000
    10  C    0.000000   0.000000
    11  C    0.000000   0.000000
    12  C    0.000000   0.000001
    13  C    0.000000  -0.000007
    14  C    0.000012   0.000040
    15  C   -0.000018  -0.000018
    16  C    0.000000   0.000000
    17  C    0.000000   0.000000
    18  C    0.000000   0.000000
    19  C    0.000000   0.000000
    20  C    0.000000   0.000000
    21  C    0.000000   0.000000
    22  C    0.000017  -0.000001
    23  S    0.000000   0.000000
    24  H    0.000000   0.000000
    25  H    0.000000   0.000000
    26  H    0.000000   0.000000
    27  H    0.000000   0.000000
    28  H    0.000000   0.000000
    29  H   -0.000360  -0.000314
    30  H    0.000000   0.000000
    31  H    0.000000  -0.000004
    32  H    0.000000   0.000000
    33  H    0.000000   0.000000
    34  H    0.000000   0.000000
    35  H    0.000000   0.000000
    36  H    0.000000   0.000000
    37  H    0.000000   0.000000
    38  H    0.000000   0.000000
    39  H    0.000000   0.000000
    40  H    0.000000   0.000000
    41  H   -0.000001  -0.000003
    42  O    0.265812   0.268259
    43  H    0.309089  -0.016813
    44  H   -0.016813   0.297572
 Mulliken atomic charges:
              1
     1  N   -0.589170
     2  N   -0.886955
     3  N   -0.628950
     4  N   -0.954045
     5  N   -0.669059
     6  N   -0.686339
     7  C   -0.491849
     8  C    0.334306
     9  C    0.384611
    10  C   -0.379741
    11  C    0.421976
    12  C   -0.372341
    13  C    0.121947
    14  C    0.857332
    15  C    0.283885
    16  C   -0.166868
    17  C   -0.283910
    18  C    0.385150
    19  C   -0.288072
    20  C   -0.287522
    21  C   -0.280876
    22  C   -0.199516
    23  S    0.262108
    24  H    0.210076
    25  H    0.180189
    26  H    0.191232
    27  H    0.385774
    28  H    0.395916
    29  H    0.483086
    30  H    0.216621
    31  H    0.203809
    32  H    0.215555
    33  H    0.201240
    34  H    0.172335
    35  H    0.176888
    36  H    0.156109
    37  H    0.173018
    38  H    0.154060
    39  H    0.176650
    40  H    0.199723
    41  H    0.206306
    42  O   -0.876891
    43  H    0.441820
    44  H    0.450379
 Sum of Mulliken atomic charges =   0.00000
 Mulliken charges with hydrogens summed into heavy atoms:
              1
     1  N   -0.589170
     2  N   -0.105265
     3  N   -0.628950
     4  N   -0.470959
     5  N   -0.669059
     6  N   -0.686339
     7  C    0.089649
     8  C    0.334306
     9  C    0.384611
    10  C   -0.379741
    11  C    0.421976
    12  C   -0.155720
    13  C    0.325756
    14  C    0.857332
    15  C    0.283885
    16  C    0.048687
    17  C   -0.082670
    18  C    0.385150
    19  C    0.217260
    20  C    0.216206
    21  C   -0.081153
    22  C    0.006790
    23  S    0.262108
    42  O    0.015309
 Sum of Mulliken charges with hydrogens summed into heavy atoms =   0.00000
 Electronic spatial extent (au):  <R**2>=          11722.4854
 Charge=              0.0000 electrons
 Dipole moment (field-independent basis, Debye):
    X=              1.2385    Y=              1.1183    Z=              1.3213  Tot=              2.1285
 Quadrupole moment (field-independent basis, Debye-Ang):
   XX=           -110.0223   YY=           -114.4324   ZZ=           -149.3509
   XY=             11.8886   XZ=             -8.7636   YZ=             -8.2251
 Traceless Quadrupole moment (field-independent basis, Debye-Ang):
   XX=             14.5796   YY=             10.1695   ZZ=            -24.7491
   XY=             11.8886   XZ=             -8.7636   YZ=             -8.2251
 Octapole moment (field-independent basis, Debye-Ang**2):
  XXX=            -40.0293  YYY=             74.7676  ZZZ=             -3.0463  XYY=             22.3176
  XXY=            -85.1897  XXZ=             35.2910  XZZ=              1.9866  YZZ=            -45.3007
  YYZ=             16.9382  XYZ=             14.7739
 Hexadecapole moment (field-independent basis, Debye-Ang**3):
 XXXX=          -9225.4573 YYYY=          -2661.8972 ZZZZ=           -503.3923 XXXY=             71.5746
 XXXZ=           -373.7426 YYYX=            475.4805 YYYZ=            -65.2261 ZZZX=            -27.4153
 ZZZY=            -32.8731 XXYY=          -1812.7485 XXZZ=          -1862.7068 YYZZ=           -855.9416
 XXYZ=           -182.4274 YYXZ=            -49.6102 ZZXY=            -72.9350
 N-N= 2.118927159867D+03 E-N=-7.567834773140D+03  KE= 1.415199303652D+03
 Calling FoFJK, ICntrl=      2127 FMM=F ISym2X=0 I1Cent= 0 IOpClX= 0 NMat=1 NMatS=1 NMatT=0.
 -------------------------------------------------------------------
 Center     Atomic                   Forces (Hartrees/Bohr)
 Number     Number              X              Y              Z
 -------------------------------------------------------------------
      1        7          -0.000867531   -0.000402405    0.000185394
      2        7          -0.000600663   -0.000464374   -0.000144265
      3        7          -0.004465655    0.002143666   -0.000177097
      4        7          -0.004860582   -0.003224701   -0.000499947
      5        7           0.001152843   -0.001433047   -0.000217719
      6        7          -0.003880898   -0.002319376   -0.000258947
      7        6           0.000018305    0.000061073    0.000033854
      8        6           0.000013985    0.000818025    0.000055438
      9        6           0.000806061    0.000259859   -0.000112672
     10        6           0.000112397   -0.000761487   -0.000222100
     11        6           0.001543195    0.000988865    0.000158600
     12        6          -0.001106792   -0.000602584   -0.000091067
     13        6           0.002389966   -0.000477147    0.000091713
     14        6           0.009633111   -0.001085569    0.000680853
     15        6          -0.003628642    0.001487316    0.000282036
     16        6           0.000400430   -0.000435320   -0.000415918
     17        6           0.000488093   -0.000150058   -0.000164697
     18        6          -0.000929855    0.001168492    0.000036272
     19        6           0.000028730    0.000296664   -0.000414530
     20        6          -0.000437133   -0.000148280    0.000428662
     21        6           0.000168394   -0.000582538    0.000592047
     22        6           0.000273591    0.000307060   -0.000135641
     23       16           0.000086220   -0.000129282   -0.000003324
     24        1           0.000009669    0.000037003    0.000102819
     25        1          -0.000017025   -0.000079242   -0.000037829
     26        1           0.000042524    0.000056689   -0.000038687
     27        1           0.000106113   -0.000009638    0.000056459
     28        1           0.000022583    0.000057419    0.000065974
     29        1           0.002094121    0.004287920   -0.000044846
     30        1          -0.000149443   -0.000062958   -0.000022963
     31        1          -0.000306281    0.000139697    0.000009039
     32        1          -0.000044106    0.000092195   -0.000073210
     33        1           0.000058902   -0.000133940    0.000072170
     34        1           0.000091982   -0.000079397    0.000001809
     35        1          -0.000021786    0.000039335    0.000032973
     36        1          -0.000016675    0.000015684    0.000129959
     37        1           0.000092480   -0.000070468    0.000007502
     38        1           0.000096026    0.000130039   -0.000039571
     39        1          -0.000013874    0.000063507   -0.000019406
     40        1           0.000109780   -0.000088122   -0.000144723
     41        1          -0.000313683    0.000129916    0.000376521
     42        8           0.004268619    0.002810214   -0.000483941
     43        1           0.000736684   -0.000729447    0.000350569
     44        1          -0.003184182   -0.001921254    0.000012434
 -------------------------------------------------------------------
 Cartesian Forces:  Max     0.009633111 RMS     0.001447561
 -----------------------------------------------------------------------------------------------
                       Internal Coordinate Forces (Hartree/Bohr or radian)
  Cent   Atom   N1       Length/X         N2         Alpha/Y        N3         Beta/Z          J
 -----------------------------------------------------------------------------------------------
      1  N           -0.000868(     1)     -0.000402(    48)      0.000185(    95)
      2  N           -0.000601(     2)     -0.000464(    49)     -0.000144(    96)
      3  N           -0.004466(     3)      0.002144(    50)     -0.000177(    97)
      4  N           -0.005610(     4)     -0.002967(    51)     -0.000539(    98)
      5  N            0.001153(     5)     -0.001433(    52)     -0.000218(    99)
      6  N           -0.003881(     6)     -0.002319(    53)     -0.000259(   100)
      7  C            0.000018(     7)      0.000061(    54)      0.000034(   101)
      8  C            0.000014(     8)      0.000818(    55)      0.000055(   102)
      9  C            0.000806(     9)      0.000260(    56)     -0.000113(   103)
     10  C            0.000112(    10)     -0.000761(    57)     -0.000222(   104)
     11  C            0.001543(    11)      0.000989(    58)      0.000159(   105)
     12  C           -0.001107(    12)     -0.000603(    59)     -0.000091(   106)
     13  C            0.002390(    13)     -0.000477(    60)      0.000092(   107)
     14  C            0.009633(    14)     -0.001086(    61)      0.000681(   108)
     15  C           -0.003629(    15)      0.001487(    62)      0.000282(   109)
     16  C            0.000400(    16)     -0.000435(    63)     -0.000416(   110)
     17  C            0.000488(    17)     -0.000150(    64)     -0.000165(   111)
     18  C           -0.000930(    18)      0.001168(    65)      0.000036(   112)
     19  C            0.000029(    19)      0.000297(    66)     -0.000415(   113)
     20  C           -0.000437(    20)     -0.000148(    67)      0.000429(   114)
     21  C            0.000168(    21)     -0.000583(    68)      0.000592(   115)
     22  C            0.000274(    22)      0.000307(    69)     -0.000136(   116)
     23  S            0.000086(    23)     -0.000129(    70)     -0.000003(   117)
     24  H            0.000010(    24)      0.000037(    71)      0.000103(   118)
     25  H           -0.000017(    25)     -0.000079(    72)     -0.000038(   119)
     26  H            0.000043(    26)      0.000057(    73)     -0.000039(   120)
     27  H            0.000106(    27)     -0.000010(    74)      0.000056(   121)
     28  H            0.000023(    28)      0.000057(    75)      0.000066(   122)
     29  H            0.004875(    29)      0.004701(    76)     -0.000234(   123)
     30  H           -0.000149(    30)     -0.000063(    77)     -0.000023(   124)
     31  H           -0.000306(    31)      0.000140(    78)      0.000009(   125)
     32  H           -0.000044(    32)      0.000092(    79)     -0.000073(   126)
     33  H            0.000059(    33)     -0.000134(    80)      0.000072(   127)
     34  H            0.000092(    34)     -0.000079(    81)      0.000002(   128)
     35  H           -0.000022(    35)      0.000039(    82)      0.000033(   129)
     36  H           -0.000017(    36)      0.000016(    83)      0.000130(   130)
     37  H            0.000092(    37)     -0.000070(    84)      0.000008(   131)
     38  H            0.000096(    38)      0.000130(    85)     -0.000040(   132)
     39  H           -0.000014(    39)      0.000064(    86)     -0.000019(   133)
     40  H            0.000110(    40)     -0.000088(    87)     -0.000145(   134)
     41  H           -0.000314(    41)      0.000130(    88)      0.000377(   135)
         X            0.000000(    42)      0.000000(    89)      0.000000(   136)
         X           -0.000199(    43)     -0.000515(    90)     -0.000001(   137)
         X           -0.000012(    44)      0.000004(    91)      0.000109(   138)
     42  O       29   0.000743(    45)     43  -0.001563(    92)      4  -0.001491(   139)     0
     43  H       45   0.000498(    46)     29   0.004943(    93)     43   0.000058(   140)     0
     44  H       45   0.000161(    47)     46   0.006633(    94)     44  -0.000488(   141)     0
 -----------------------------------------------------------------------------------------------
 Internal  Forces:  Max     0.009633111 RMS     0.001550820

 GradGradGradGradGradGradGradGradGradGradGradGradGradGradGradGradGradGrad
 Berny optimization.
 Search for a local minimum.
 Step number   1 out of a maximum of  100
 All quantities printed in internal units (Hartrees-Bohrs-Radians)
 Second derivative matrix not updated -- first step.
 The second derivative matrix:
                          roh       phi
           roh          0.04064
           phi          0.00000   0.00000
     Eigenvalues ---    0.00000   0.04064
 RFO step:  Lambda=-6.48978982D-05 EMin= 9.15549051D-15
 Linear search not attempted -- first point.
 Maximum step size (   0.300) exceeded in Quadratic search.
    -- Step size scaled by   0.337
 Variable       Old X    -DE/DX   Delta X   Delta X   Delta X     New X
                                 (Linear)    (Quad)   (Total)
   roh        3.84635   0.00074   0.00000   0.00616   0.00616   3.85251
   phi        4.64819   0.00006   0.00000   0.29994   0.29994   4.94813
         Item               Value     Threshold  Converged?
 Maximum Force            0.000743     0.000450     NO 
 RMS     Force            0.000527     0.000300     NO 
 Maximum Displacement     0.299937     0.001800     NO 
 RMS     Displacement     0.212132     0.001200     NO 
 Predicted change in Energy=-2.111530D-05
 GradGradGradGradGradGradGradGradGradGradGradGradGradGradGradGradGradGrad

 ---------------------------------------------------------------------------------------------------
                            Z-MATRIX (ANGSTROMS AND DEGREES)
   CD    Cent   Atom    N1       Length/X        N2       Alpha/Y        N3        Beta/Z          J
 ---------------------------------------------------------------------------------------------------
      1      1  N        0  -3.013310         -2.511550         -0.412190
      2      2  N        0  -5.227560         -3.080250          0.017760
      3      3  N        0  -0.978170          3.560350          0.131290
      4      4  N        0   1.039990          2.528080          0.168310
      5      5  N        0   4.965790         -1.515470         -0.008700
      6      6  N        0  -0.840430          1.198040          0.040700
      7      7  C        0  -0.761600         -1.677320         -0.873750
      8      8  C        0  -2.178550         -1.415950         -0.453810
      9      9  C        0  -4.200080         -2.188550         -0.056910
     10     10  C        0  -2.743260         -0.232570         -0.111110
     11     11  C        0  -2.161610          1.109840         -0.029690
     12     12  C        0  -2.958510          2.253840         -0.018700
     13     13  C        0  -2.287360          3.456620          0.067680
     14     14  C        0  -0.310180          2.407830          0.107020
[...]
     9  C    0.000000   0.000000   0.000000   0.000000   0.337389  -0.000127
    10  C    0.000000   0.000000   0.000000   0.000001   0.275745  -0.004355
    11  C    0.000000   0.000000   0.000000  -0.000013  -0.042206   0.000348
    12  C    0.000000   0.000000   0.000000  -0.000002  -0.000018   0.000073
    13  C    0.000000   0.000000   0.000000   0.000004   0.000292  -0.000005
    14  C    0.000000   0.000000  -0.000051   0.001281  -0.000109   0.000241
    15  C    0.000011   0.000010  -0.048383   0.594216   0.000000   0.000753
    16  C   -0.000259  -0.000066  -0.039797  -0.048765   0.000000   0.000079
    17  C   -0.009816   0.002412  -0.040101  -0.041039   0.000000  -0.000130
    18  C   -0.046713  -0.047516   0.575911  -0.034354   0.000000  -0.000031
    19  C    4.929892  -0.051750   0.002293  -0.000073   0.000000   0.000000
    20  C   -0.051750   4.928826  -0.010043  -0.000282   0.000000   0.000000
    21  C    0.002293  -0.010043   5.019214   0.523795   0.000000   0.000013
    22  C   -0.000073  -0.000282   0.523795   4.907391   0.000000   0.000291
    23  S    0.000000   0.000000   0.000000   0.000000  15.389116   0.000097
    24  H    0.000000   0.000000   0.000013   0.000291   0.000097   0.472325
    25  H    0.000000   0.000000  -0.000001   0.000000  -0.000047  -0.023659
    26  H   -0.000001   0.000000  -0.000013  -0.000043   0.000021  -0.022420
    27  H    0.000000   0.000000   0.000000   0.000000   0.000279   0.000000
    28  H    0.000000   0.000000   0.000000   0.000000   0.003532   0.000000
    29  H    0.000000   0.000000   0.000068  -0.001426   0.000000   0.000000
    30  H    0.000000   0.000000   0.000000   0.000000   0.000249  -0.000002
    31  H    0.000000   0.000000   0.000000   0.000000  -0.000013   0.000000
    32  H   -0.000006   0.000002   0.000211   0.003616   0.000000  -0.000005
    33  H    0.000338  -0.000059   0.002799   0.000357   0.000000  -0.000001
    34  H    0.403901  -0.007556  -0.000050   0.000002   0.000000   0.000000
    35  H    0.405100   0.003955  -0.000088   0.000004   0.000000   0.000000
    36  H    0.390549   0.000637   0.000311  -0.000019   0.000000   0.000000
    37  H   -0.007513   0.404208   0.000497   0.000008   0.000000   0.000000
    38  H    0.000561   0.390227   0.002247  -0.000218   0.000000   0.000000
    39  H    0.004004   0.404873  -0.001079   0.000120   0.000000   0.000000
    40  H   -0.000062   0.000423   0.379643  -0.026276   0.000000   0.000000
    41  H    0.000002  -0.000005  -0.029534   0.376687   0.000000   0.000000
    42  O    0.000000   0.000000   0.000001   0.000060   0.000000   0.000000
    43  H    0.000000   0.000000   0.000000   0.000016   0.000000   0.000000
    44  H    0.000000   0.000000   0.000000  -0.000001   0.000000   0.000000
             25         26         27         28         29         30
     1  N   -0.001036   0.000543   0.002444   0.004875   0.000000  -0.000005
     2  N   -0.000016   0.000000   0.331042   0.322153   0.000000   0.000000
     3  N    0.000000   0.000000   0.000000   0.000000   0.003356   0.002694
     4  N   -0.000001   0.000002   0.000000   0.000000   0.295897   0.000016
     5  N    0.000000  -0.000003   0.000000   0.000000   0.000000   0.000000
     6  N    0.000567  -0.000009   0.000000   0.000000   0.002737   0.002539
     7  C    0.382733   0.388261   0.000002  -0.000020   0.000000  -0.000001
     8  C   -0.039489  -0.034756  -0.000166   0.000295   0.000000   0.000016
     9  C    0.000072  -0.000175  -0.026260  -0.023132   0.000000   0.000016
    10  C    0.004252  -0.003713   0.000047  -0.000076   0.000005  -0.000966
    11  C   -0.000282   0.000970  -0.000001   0.000000  -0.000064  -0.025567
    12  C    0.000003   0.000016   0.000000   0.000000   0.000001   0.374194
    13  C    0.000000   0.000000   0.000000   0.000000   0.000405  -0.022270
    14  C    0.000017  -0.000123   0.000000   0.000000  -0.016120   0.000454
    15  C    0.000006  -0.000047   0.000000   0.000000  -0.015804   0.000000
    16  C    0.000022   0.000921   0.000000   0.000000   0.001232   0.000000
    17  C    0.000005   0.001122   0.000000   0.000000  -0.000023   0.000000
    18  C    0.000000   0.000034   0.000000   0.000000   0.000003   0.000000
    19  C    0.000000  -0.000001   0.000000   0.000000   0.000000   0.000000
    20  C    0.000000   0.000000   0.000000   0.000000   0.000000   0.000000
    21  C   -0.000001  -0.000013   0.000000   0.000000   0.000068   0.000000
    22  C    0.000000  -0.000043   0.000000   0.000000  -0.001426   0.000000
    23  S   -0.000047   0.000021   0.000279   0.003532   0.000000   0.000249
    24  H   -0.023659  -0.022420   0.000000   0.000000   0.000000  -0.000002
    25  H    0.522493  -0.025885   0.000000   0.000008   0.000000   0.000000
    26  H   -0.025885   0.503960   0.000000   0.000000   0.000000   0.000000
    27  H    0.000000   0.000000   0.323760  -0.016939   0.000000   0.000000
    28  H    0.000008   0.000000  -0.016939   0.313371   0.000000   0.000000
    29  H    0.000000   0.000000   0.000000   0.000000   0.234350  -0.000001
    30  H    0.000000   0.000000   0.000000   0.000000  -0.000001   0.452023
    31  H    0.000000   0.000000   0.000000   0.000000  -0.000027  -0.000108
    32  H    0.000000   0.000064   0.000000   0.000000  -0.000048   0.000000
    33  H    0.000000   0.000039   0.000000   0.000000   0.000001   0.000000
    34  H    0.000000   0.000000   0.000000   0.000000   0.000000   0.000000
    35  H    0.000000   0.000004   0.000000   0.000000   0.000000   0.000000
    36  H    0.000000   0.000000   0.000000   0.000000   0.000000   0.000000
    37  H    0.000000   0.000000   0.000000   0.000000   0.000000   0.000000
    38  H    0.000000   0.000000   0.000000   0.000000   0.000000   0.000000
    39  H    0.000000   0.000000   0.000000   0.000000   0.000000   0.000000
    40  H    0.000000   0.000000   0.000000   0.000000  -0.000002   0.000000
    41  H    0.000000   0.000000   0.000000   0.000000   0.000996   0.000000
    42  O    0.000000   0.000000   0.000000   0.000000   0.016934   0.000000
    43  H    0.000000   0.000000   0.000000   0.000000  -0.000390   0.000000
    44  H    0.000000   0.000000   0.000000   0.000000  -0.000348   0.000000
             31         32         33         34         35         36
     1  N    0.000000   0.000000   0.000000   0.000000   0.000000   0.000000
     2  N    0.000000   0.000000   0.000000   0.000000   0.000000   0.000000
     3  N   -0.044259  -0.000016   0.000000   0.000000   0.000000   0.000000
     4  N   -0.000046  -0.003632  -0.000105   0.000000   0.000000   0.000000
     5  N    0.000000  -0.000070  -0.004016  -0.036966  -0.044734  -0.057906
     6  N   -0.000593   0.001869  -0.000007   0.000000   0.000000   0.000000
     7  C    0.000000   0.000010   0.000000   0.000000   0.000000   0.000000
     8  C    0.000001   0.000001   0.000000   0.000000   0.000000   0.000000
     9  C    0.000000   0.000000   0.000000   0.000000   0.000000   0.000000
    10  C   -0.000057  -0.000025   0.000000   0.000000   0.000000   0.000000
    11  C    0.002485  -0.000009   0.000000   0.000000   0.000000   0.000000
    12  C   -0.053283   0.000008   0.000000   0.000000   0.000000   0.000000
    13  C    0.407716  -0.000002   0.000000   0.000000   0.000000   0.000000
    14  C    0.003633   0.002292  -0.000003   0.000000   0.000000   0.000000
    15  C    0.000003  -0.023137   0.001634   0.000000  -0.000007  -0.000006
    16  C    0.000000   0.376492  -0.025852   0.000007   0.000154  -0.000237
    17  C    0.000000  -0.031823   0.379999   0.000478  -0.001305   0.002215
    18  C    0.000000   0.001605  -0.031445   0.003328  -0.003357   0.002292
    19  C    0.000000  -0.000006   0.000338   0.403901   0.405100   0.390549
    20  C    0.000000   0.000002  -0.000059  -0.007556   0.003955   0.000637
    21  C    0.000000   0.000211   0.002799  -0.000050  -0.000088   0.000311
    22  C    0.000000   0.003616   0.000357   0.000002   0.000004  -0.000019
    23  S   -0.000013   0.000000   0.000000   0.000000   0.000000   0.000000
    24  H    0.000000  -0.000005  -0.000001   0.000000   0.000000   0.000000
    25  H    0.000000   0.000000   0.000000   0.000000   0.000000   0.000000
    26  H    0.000000   0.000064   0.000039   0.000000   0.000004   0.000000
    27  H    0.000000   0.000000   0.000000   0.000000   0.000000   0.000000
    28  H    0.000000   0.000000   0.000000   0.000000   0.000000   0.000000
    29  H   -0.000027  -0.000048   0.000001   0.000000   0.000000   0.000000
    30  H   -0.000108   0.000000   0.000000   0.000000   0.000000   0.000000
    31  H    0.480569   0.000000   0.000000   0.000000   0.000000   0.000000
    32  H    0.000000   0.459015  -0.001921   0.000000  -0.000001  -0.000002
    33  H    0.000000  -0.001921   0.479193   0.000168  -0.002180  -0.000147
    34  H    0.000000   0.000000   0.000168   0.518637  -0.025509  -0.030863
    35  H    0.000000  -0.000001  -0.002180  -0.025509   0.535539  -0.044375
    36  H    0.000000  -0.000002  -0.000147  -0.030863  -0.044375   0.579353
    37  H    0.000000   0.000000   0.000000   0.001851   0.000250  -0.000065
    38  H    0.000000   0.000000   0.000005  -0.000046  -0.000365   0.002444
    39  H    0.000000   0.000000  -0.000001   0.000242   0.000022  -0.000361
    40  H    0.000000   0.000011  -0.000125   0.000000  -0.000003   0.000009
    41  H    0.000000  -0.000131   0.000013   0.000000   0.000000   0.000000
    42  O    0.000002   0.000000   0.000000   0.000000   0.000000   0.000000
    43  H    0.000000   0.000000   0.000000   0.000000   0.000000   0.000000
    44  H   -0.000004   0.000000   0.000000   0.000000   0.000000   0.000000
             37         38         39         40         41         42
     1  N    0.000000   0.000000   0.000000   0.000000   0.000000   0.000000
     2  N    0.000000   0.000000   0.000000   0.000000   0.000000   0.000000
     3  N    0.000000   0.000000   0.000000   0.000000  -0.000022   0.000252
     4  N    0.000000   0.000000   0.000000  -0.000113   0.000393  -0.007120
     5  N   -0.037051  -0.058382  -0.044734  -0.004214  -0.000072   0.000000
     6  N    0.000000   0.000000   0.000000   0.000000  -0.000025  -0.000003
     7  C    0.000000   0.000000   0.000000   0.000000   0.000000   0.000000
     8  C    0.000000   0.000000   0.000000   0.000000   0.000000   0.000000
     9  C    0.000000   0.000000   0.000000   0.000000   0.000000   0.000000
    10  C    0.000000   0.000000   0.000000   0.000000   0.000000   0.000000
    11  C    0.000000   0.000000   0.000000   0.000000   0.000000   0.000000
    12  C    0.000000   0.000000   0.000000   0.000000   0.000000   0.000000
    13  C    0.000000   0.000000   0.000000   0.000000   0.000000   0.000016
    14  C    0.000000   0.000000   0.000000   0.000000   0.000226  -0.000288
    15  C    0.000000  -0.000005  -0.000009   0.001736  -0.030874   0.000268
    16  C    0.000002  -0.000020   0.000006   0.000273   0.003443   0.000000
    17  C   -0.000053   0.000216  -0.000059   0.002850   0.000234   0.000000
    18  C    0.003266   0.002242  -0.003134  -0.030652   0.001663   0.000000
    19  C   -0.007513   0.000561   0.004004  -0.000062   0.000002   0.000000
    20  C    0.404208   0.390227   0.404873   0.000423  -0.000005   0.000000
    21  C    0.000497   0.002247  -0.001079   0.379643  -0.029534   0.000001
    22  C    0.000008  -0.000218   0.000120  -0.026276   0.376687   0.000060
    23  S    0.000000   0.000000   0.000000   0.000000   0.000000   0.000000
    24  H    0.000000   0.000000   0.000000   0.000000   0.000000   0.000000
    25  H    0.000000   0.000000   0.000000   0.000000   0.000000   0.000000
    26  H    0.000000   0.000000   0.000000   0.000000   0.000000   0.000000
    27  H    0.000000   0.000000   0.000000   0.000000   0.000000   0.000000
    28  H    0.000000   0.000000   0.000000   0.000000   0.000000   0.000000
    29  H    0.000000   0.000000   0.000000  -0.000002   0.000996   0.016934
    30  H    0.000000   0.000000   0.000000   0.000000   0.000000   0.000000
    31  H    0.000000   0.000000   0.000000   0.000000   0.000000   0.000002
    32  H    0.000000   0.000000   0.000000   0.000011  -0.000131   0.000000
    33  H    0.000000   0.000005  -0.000001  -0.000125   0.000013   0.000000
    34  H    0.001851  -0.000046   0.000242   0.000000   0.000000   0.000000
    35  H    0.000250  -0.000365   0.000022  -0.000003   0.000000   0.000000
    36  H   -0.000065   0.002444  -0.000361   0.000009   0.000000   0.000000
    37  H    0.517806  -0.031360  -0.025071   0.000171   0.000000   0.000000
    38  H   -0.031360   0.583022  -0.044736   0.000036  -0.000002   0.000000
    39  H   -0.025071  -0.044736   0.535710  -0.002459   0.000001   0.000000
    40  H    0.000171   0.000036  -0.002459   0.481050  -0.002120   0.000000
    41  H    0.000000  -0.000002   0.000001  -0.002120   0.472437   0.000226
    42  O    0.000000   0.000000   0.000000   0.000000   0.000226   8.331392
    43  H    0.000000   0.000000   0.000000   0.000000  -0.000001   0.265890
    44  H    0.000000   0.000000   0.000000   0.000000  -0.000003   0.268317
             43         44
     1  N    0.000000   0.000000
     2  N    0.000000   0.000000
     3  N    0.000016   0.000473
     4  N    0.000365   0.000324
     5  N    0.000000   0.000000
     6  N    0.000000   0.000001
     7  C    0.000000   0.000000
     8  C    0.000000   0.000000
     9  C    0.000000   0.000000
    10  C    0.000000   0.000000
    11  C    0.000000   0.000000
    12  C    0.000000   0.000000
    13  C    0.000000  -0.000006
    14  C    0.000012   0.000036
    15  C   -0.000016  -0.000016
    16  C    0.000000   0.000000
    17  C    0.000000   0.000000
    18  C    0.000000   0.000000
    19  C    0.000000   0.000000
    20  C    0.000000   0.000000
    21  C    0.000000   0.000000
    22  C    0.000016  -0.000001
    23  S    0.000000   0.000000
    24  H    0.000000   0.000000
    25  H    0.000000   0.000000
    26  H    0.000000   0.000000
    27  H    0.000000   0.000000
    28  H    0.000000   0.000000
    29  H   -0.000390  -0.000348
    30  H    0.000000   0.000000
    31  H    0.000000  -0.000004
    32  H    0.000000   0.000000
    33  H    0.000000   0.000000
    34  H    0.000000   0.000000
    35  H    0.000000   0.000000
    36  H    0.000000   0.000000
    37  H    0.000000   0.000000
    38  H    0.000000   0.000000
    39  H    0.000000   0.000000
    40  H    0.000000   0.000000
    41  H   -0.000001  -0.000003
    42  O    0.265890   0.268317
    43  H    0.309750  -0.016925
    44  H   -0.016925   0.298507
 Mulliken atomic charges:
              1
     1  N   -0.589158
     2  N   -0.886941
     3  N   -0.628193
     4  N   -0.951649
     5  N   -0.669065
     6  N   -0.686318
     7  C   -0.491868
     8  C    0.334333
     9  C    0.384630
    10  C   -0.379757
    11  C    0.421979
    12  C   -0.372160
    13  C    0.121866
    14  C    0.857494
    15  C    0.284054
    16  C   -0.166699
    17  C   -0.283927
    18  C    0.385262
    19  C   -0.288110
    20  C   -0.287566
    21  C   -0.280896
    22  C   -0.199217
    23  S    0.262169
    24  H    0.210054
    25  H    0.180240
    26  H    0.191231
    27  H    0.385791
    28  H    0.395933
    29  H    0.478267
    30  H    0.216720
    31  H    0.203981
    32  H    0.215634
    33  H    0.201317
    34  H    0.172375
    35  H    0.176896
    36  H    0.156170
    37  H    0.173054
    38  H    0.154133
    39  H    0.176667
    40  H    0.199822
    41  H    0.206470
    42  O   -0.875943
    43  H    0.441282
    44  H    0.449641
 Sum of Mulliken atomic charges =   0.00000
 Mulliken charges with hydrogens summed into heavy atoms:
              1
     1  N   -0.589158
     2  N   -0.105218
     3  N   -0.628193
     4  N   -0.473382
     5  N   -0.669065
     6  N   -0.686318
     7  C    0.089657
     8  C    0.334333
     9  C    0.384630
    10  C   -0.379757
    11  C    0.421979
    12  C   -0.155440
    13  C    0.325847
    14  C    0.857494
    15  C    0.284054
    16  C    0.048935
    17  C   -0.082610
    18  C    0.385262
    19  C    0.217331
    20  C    0.216288
    21  C   -0.081073
    22  C    0.007253
    23  S    0.262169
    42  O    0.014981
 Sum of Mulliken charges with hydrogens summed into heavy atoms =   0.00000
 Electronic spatial extent (au):  <R**2>=          11739.7814
 Charge=              0.0000 electrons
 Dipole moment (field-independent basis, Debye):
    X=              1.2287    Y=              1.0905    Z=              1.3198  Tot=              2.1074
 Quadrupole moment (field-independent basis, Debye-Ang):
   XX=           -109.9175   YY=           -114.3886   ZZ=           -149.3538
   XY=             11.8597   XZ=             -8.8179   YZ=             -8.2158
 Traceless Quadrupole moment (field-independent basis, Debye-Ang):
   XX=             14.6358   YY=             10.1647   ZZ=            -24.8005
   XY=             11.8597   XZ=             -8.8179   YZ=             -8.2158
 Octapole moment (field-independent basis, Debye-Ang**2):
  XXX=            -39.8861  YYY=             76.1554  ZZZ=             -3.0524  XYY=             22.7594
  XXY=            -85.1038  XXZ=             35.0679  XZZ=              1.8657  YZZ=            -45.6512
  YYZ=             17.1372  XYZ=             14.5131
 Hexadecapole moment (field-independent basis, Debye-Ang**3):
 XXXX=          -9223.6411 YYYY=          -2649.3265 ZZZZ=           -503.3415 XXXY=             70.7530
 XXXZ=           -374.5034 YYYX=            480.8811 YYYZ=            -63.3141 ZZZX=            -27.4695
 ZZZY=            -33.0704 XXYY=          -1811.2391 XXZZ=          -1863.0798 YYZZ=           -859.3467
 XXYZ=           -183.5820 YYXZ=            -50.6905 ZZXY=            -74.3015
 N-N= 2.117877300170D+03 E-N=-7.565715606169D+03  KE= 1.415195992436D+03
 1\1\GINC-B41\FOpt\RHF\6-31G(d)\C16H20N6O1S1\RUPAKHETIC\28-Mar-2018\1\\
 #HF/6-31G* nosymm SCF=Tight opt=(Z-MATRIX,MaxCycle=200)\\Mol-Water Dim
 er\\0,1\N,0,-3.01331,-2.51155,-0.41219\N,0,-5.22756,-3.08025,0.01776\N
 ,0,-0.97817,3.56035,0.13129\N,0,1.03999,2.52808,0.16831\N,0,4.96579,-1
 .51547,-0.0087\N,0,-0.84043,1.19804,0.0407\C,0,-0.7616,-1.67732,-0.873
 75\C,0,-2.17855,-1.41595,-0.45381\C,0,-4.20008,-2.18855,-0.05691\C,0,-
 2.74326,-0.23257,-0.11111\C,0,-2.16161,1.10984,-0.02969\C,0,-2.95851,2
 .25384,-0.0187\C,0,-2.28736,3.45662,0.06768\C,0,-0.31018,2.40783,0.107
 02\C,0,2.00032,1.48794,0.11857\C,0,2.04918,0.49089,1.08054\C,0,3.01909
 ,-0.49053,1.0434\C,0,4.00146,-0.50964,0.04361\C,0,5.18471,-2.31613,1.1
 765\C,0,6.11511,-1.31633,-0.86371\C,0,3.95701,0.51458,-0.90628\C,0,2.9
 6534,1.47999,-0.87153\S,0,-4.44477,-0.50304,0.26866\H,0,-0.3237,-0.829
 86,-1.37539\H,0,-0.74791,-2.54516,-1.52064\H,0,-0.14764,-1.89114,-0.00
 521\H,0,-5.97008,-2.88098,0.65016\H,0,-4.93488,-4.03367,0.00875\H,0,1.
 36351,3.46879,0.16814\H,0,-4.02699,2.21893,-0.09266\H,0,-2.83523,4.383
 64,0.08106\H,0,1.31685,0.47914,1.86562\H,0,3.00679,-1.23797,1.81091\H,
 0,5.96939,-3.03215,0.97745\H,0,4.29634,-2.88014,1.43166\H,0,5.47495,-1
 .72296,2.04398\H,0,6.75956,-2.18123,-0.79487\H,0,6.69756,-0.43358,-0.5
 979\H,0,5.81297,-1.22539,-1.89952\H,0,4.68426,0.56815,-1.69104\H,0,2.9
 501,2.24274,-1.6304\X,0,1.03999,2.52808,0.16831\X,0,1.43369,3.44438,-1
 .33002\X,0,2.98959,8.19699,0.16729\O,29,roh,43,90.,4,180.,0\H,45,0.947
 4,29,127.2302,43,phi,0\H,45,0.9474,46,105.5395,44,0.,0\\roh=2.0767422\
 phi=267.3275377\\Version=EM64L-G09RevA.02\HF=-1416.5941462\RMSD=6.764e
 -09\RMSF=1.376e-03\Dipole=0.4834238,0.4290307,0.5192677\Quadrupole=10.
 8813744,7.5571774,-18.4385517,8.8174163,-6.5558737,-6.1082133\PG=C01 [
 X(C16H20N6O1S1)]\\@


 REALITY IS FOR PEOPLE WHO CAN'T FACE SCIENCE FICTION.
 Job cpu time:  0 days  0 hours 40 minutes 17.6 seconds.
 File lengths (MBytes):  RWF=    105 Int=      0 D2E=      0 Chk=     10 Scr=      1
 Normal termination of Gaussian 09 at Wed Mar 28 16:03:02 2018.
