 Entering Gaussian System, Link 0=/homes/huanglei/prog/g09/g09
 Initial command:
 /homes/huanglei/prog/g09/l1.exe /scratch/1867310.bmgt1.lcrc.anl.gov/Gau-19520.inp -scrdir=/scratch/1867310.bmgt1.lcrc.anl.gov/
 Entering Link 1 = /homes/huanglei/prog/g09/l1.exe PID=     19521.
  
 Copyright (c) 1988,1990,1992,1993,1995,1998,2003,2009, Gaussian, Inc.
                  All Rights Reserved.
  
 This is part of the Gaussian(R) 09 program.  It is based on
 the Gaussian(R) 03 system (copyright 2003, Gaussian, Inc.),
 the Gaussian(R) 98 system (copyright 1998, Gaussian, Inc.),
 the Gaussian(R) 94 system (copyright 1995, Gaussian, Inc.),
 the Gaussian 92(TM) system (copyright 1992, Gaussian, Inc.),
 the Gaussian 90(TM) system (copyright 1990, Gaussian, Inc.),
 the Gaussian 88(TM) system (copyright 1988, Gaussian, Inc.),
 the Gaussian 86(TM) system (copyright 1986, Carnegie Mellon
 University), and the Gaussian 82(TM) system (copyright 1983,
 Carnegie Mellon University). Gaussian is a federally registered
 trademark of Gaussian, Inc.
  
 This software contains proprietary and confidential information,
 including trade secrets, belonging to Gaussian, Inc.
  
 This software is provided under written license and may be
 used, copied, transmitted, or stored only in accord with that
 written license.
  
 The following legend is applicable only to US Government
 contracts under FAR:
  
                    RESTRICTED RIGHTS LEGEND
  
 Use, reproduction and disclosure by the US Government is
 subject to restrictions as set forth in subparagraphs (a)
 and (c) of the Commercial Computer Software - Restricted
 Rights clause in FAR 52.227-19.
  
 Gaussian, Inc.
 340 Quinnipiac St., Bldg. 40, Wallingford CT 06492
  
  
 ---------------------------------------------------------------
 Warning -- This program may not be used in any manner that
 competes with the business of Gaussian, Inc. or will provide
 assistance to any competitor of Gaussian, Inc.  The licensee
 of this program is prohibited from giving any competitor of
 Gaussian, Inc. access to this program.  By using this program,
 the user acknowledges that Gaussian, Inc. is engaged in the
 business of creating and licensing software in the field of
 computational chemistry and represents and warrants to the
 licensee that it is not a competitor of Gaussian, Inc. and that
 it will not use this program in any manner prohibited above.
 ---------------------------------------------------------------
  

 Cite this work as:
 Gaussian 09, Revision A.02,
 M. J. Frisch, G. W. Trucks, H. B. Schlegel, G. E. Scuseria, 
 M. A. Robb, J. R. Cheeseman, G. Scalmani, V. Barone, B. Mennucci, 
 G. A. Petersson, H. Nakatsuji, M. Caricato, X. Li, H. P. Hratchian, 
 A. F. Izmaylov, J. Bloino, G. Zheng, J. L. Sonnenberg, M. Hada, 
 M. Ehara, K. Toyota, R. Fukuda, J. Hasegawa, M. Ishida, T. Nakajima, 
 Y. Honda, O. Kitao, H. Nakai, T. Vreven, J. A. Montgomery, Jr., 
 J. E. Peralta, F. Ogliaro, M. Bearpark, J. J. Heyd, E. Brothers, 
 K. N. Kudin, V. N. Staroverov, R. Kobayashi, J. Normand, 
 K. Raghavachari, A. Rendell, J. C. Burant, S. S. Iyengar, J. Tomasi, 
 M. Cossi, N. Rega, J. M. Millam, M. Klene, J. E. Knox, J. B. Cross, 
 V. Bakken, C. Adamo, J. Jaramillo, R. Gomperts, R. E. Stratmann, 
 O. Yazyev, A. J. Austin, R. Cammi, C. Pomelli, J. W. Ochterski, 
 R. L. Martin, K. Morokuma, V. G. Zakrzewski, G. A. Voth, 
 P. Salvador, J. J. Dannenberg, S. Dapprich, A. D. Daniels, 
 O. Farkas, J. B. Foresman, J. V. Ortiz, J. Cioslowski, 
 and D. J. Fox, Gaussian, Inc., Wallingford CT, 2009.
 
 ******************************************
 Gaussian 09:  EM64L-G09RevA.02 11-Jun-2009
                28-Mar-2018 
 ******************************************
 %mem=5GB
 %nproc=12
 Will use up to   12 processors via shared memory.
 ---------------------------
 #HF/6-31G* nosymm SCF=Tight
 ---------------------------
 1/38=1/1;
 2/12=2,15=1,17=6,18=5,40=1/2;
 3/5=1,6=6,7=1,11=9,16=1,25=1,30=1/1,2,3;
 4//1;
 5/5=2,32=2,38=5/2;
 6/7=2,8=2,9=2,10=2,28=1/1;
 99/5=1,9=1/99;
 ---
 Mol
 ---
 Symbolic Z-matrix:
 Charge =  0 Multiplicity = 1
 N                    -3.01331  -2.51155  -0.41219 
 N                    -5.22756  -3.08025   0.01776 
 N                    -0.97817   3.56035   0.13129 
 N                     1.03999   2.52808   0.16831 
 N                     4.96579  -1.51547  -0.0087 
 N                    -0.84043   1.19804   0.0407 
 C                    -0.7616   -1.67732  -0.87375 
 C                    -2.17855  -1.41595  -0.45381 
 C                    -4.20008  -2.18855  -0.05691 
 C                    -2.74326  -0.23257  -0.11111 
 C                    -2.16161   1.10984  -0.02969 
 C                    -2.95851   2.25384  -0.0187 
 C                    -2.28736   3.45662   0.06768 
 C                    -0.31018   2.40783   0.10702 
 C                     2.00032   1.48794   0.11857 
 C                     2.04918   0.49089   1.08054 
 C                     3.01909  -0.49053   1.0434 
 C                     4.00146  -0.50964   0.04361 
 C                     5.18471  -2.31613   1.1765 
 C                     6.11511  -1.31633  -0.86371 
 C                     3.95701   0.51458  -0.90628 
 C                     2.96534   1.47999  -0.87153 
 S                    -4.44477  -0.50304   0.26866 
 H                    -0.3237   -0.82986  -1.37539 
 H                    -0.74791  -2.54516  -1.52064 
 H                    -0.14764  -1.89114  -0.00521 
 H                    -5.97008  -2.88098   0.65016 
 H                    -4.93488  -4.03367   0.00875 
 H                     1.36351   3.46879   0.16814 
 H                    -4.02699   2.21893  -0.09266 
 H                    -2.83523   4.38364   0.08106 
 H                     1.31685   0.47914   1.86562 
 H                     3.00679  -1.23797   1.81091 
 H                     5.96939  -3.03215   0.97745 
 H                     4.29634  -2.88014   1.43166 
 H                     5.47495  -1.72296   2.04398 
 H                     6.75956  -2.18123  -0.79487 
 H                     6.69756  -0.43358  -0.5979 
 H                     5.81297  -1.22539  -1.89952 
 H                     4.68426   0.56815  -1.69104 
 H                     2.9501    2.24274  -1.6304 
 
                          Input orientation:                          
 ---------------------------------------------------------------------
 Center     Atomic      Atomic             Coordinates (Angstroms)
 Number     Number       Type             X           Y           Z
 ---------------------------------------------------------------------
      1          7           0       -3.013310   -2.511550   -0.412190
      2          7           0       -5.227560   -3.080250    0.017760
      3          7           0       -0.978170    3.560350    0.131290
      4          7           0        1.039990    2.528080    0.168310
      5          7           0        4.965790   -1.515470   -0.008700
      6          7           0       -0.840430    1.198040    0.040700
      7          6           0       -0.761600   -1.677320   -0.873750
      8          6           0       -2.178550   -1.415950   -0.453810
      9          6           0       -4.200080   -2.188550   -0.056910
     10          6           0       -2.743260   -0.232570   -0.111110
     11          6           0       -2.161610    1.109840   -0.029690
     12          6           0       -2.958510    2.253840   -0.018700
     13          6           0       -2.287360    3.456620    0.067680
     14          6           0       -0.310180    2.407830    0.107020
     15          6           0        2.000320    1.487940    0.118570
     16          6           0        2.049180    0.490890    1.080540
     17          6           0        3.019090   -0.490530    1.043400
     18          6           0        4.001460   -0.509640    0.043610
     19          6           0        5.184710   -2.316130    1.176500
     20          6           0        6.115110   -1.316330   -0.863710
     21          6           0        3.957010    0.514580   -0.906280
     22          6           0        2.965340    1.479990   -0.871530
     23         16           0       -4.444770   -0.503040    0.268660
     24          1           0       -0.323700   -0.829860   -1.375390
     25          1           0       -0.747910   -2.545160   -1.520640
     26          1           0       -0.147640   -1.891140   -0.005210
     27          1           0       -5.970080   -2.880980    0.650160
     28          1           0       -4.934880   -4.033670    0.008750
     29          1           0        1.363510    3.468790    0.168140
     30          1           0       -4.026990    2.218930   -0.092660
     31          1           0       -2.835230    4.383640    0.081060
     32          1           0        1.316850    0.479140    1.865620
     33          1           0        3.006790   -1.237970    1.810910
     34          1           0        5.969390   -3.032150    0.977450
     35          1           0        4.296340   -2.880140    1.431660
     36          1           0        5.474950   -1.722960    2.043980
     37          1           0        6.759560   -2.181230   -0.794870
     38          1           0        6.697560   -0.433580   -0.597900
     39          1           0        5.812970   -1.225390   -1.899520
     40          1           0        4.684260    0.568150   -1.691040
     41          1           0        2.950100    2.242740   -1.630400
 ---------------------------------------------------------------------
                    Distance matrix (angstroms):
                    1          2          3          4          5
     1  N    0.000000
     2  N    2.326194   0.000000
     3  N    6.426907   7.884654   0.000000
     4  N    6.493388   8.411790   2.267140   0.000000
     5  N    8.051150  10.312789   7.817558   5.638576   0.000000
     6  N    4.322913   6.127903   2.368056   2.306788   6.409194
     7  C    2.445235   4.765270   5.337621   4.692228   5.794610
     8  C    1.378004   3.505529   5.152360   5.128490   7.158884
     9  C    1.280225   1.362505   6.592873   7.053769   9.190676
    10  C    2.314590   3.781221   4.190530   4.691721   7.815739
    11  C    3.739808   5.192221   2.726068   3.507257   7.595559
    12  C    4.781922   5.796761   2.377228   4.012254   8.775097
    13  C    6.031279   7.167841   1.314833   3.455947   8.794072
    14  C    5.637091   7.369370   1.332330   1.356899   6.575829
    15  C    6.435380   8.551068   3.628560   1.416545   4.222639
    16  C    6.072207   8.175175   4.414466   2.449647   3.703854
    17  C    6.526340   8.704357   5.763650   3.714112   2.438659
    18  C    7.309063   9.580371   6.431891   4.244243   1.394404
    19  C    8.352823  10.504376   8.579427   6.454574   1.446956
    20  C    9.217401  11.512800   8.665256   6.449914   1.446249
    21  C    7.614916   9.906209   5.891457   3.703773   2.438112
    22  C    7.203308   9.418611   4.569991   2.426259   3.703924
    23  S    2.558661   2.705129   5.342970   6.267404   9.468927
    24  H    3.315092   5.572519   4.687468   3.939343   5.506052
    25  H    2.522266   4.766577   6.329229   5.637987   5.999383
    26  H    2.960170   5.217288   5.516082   4.579310   5.127212
    27  H    3.163472   0.995477   8.165729   8.867423  11.040469
    28  H    2.487262   0.997373   8.563861   8.875871  10.215914
    29  H    7.433559   9.292725   2.343759   0.994787   6.152279
    30  H    4.848411   5.434599   3.338393   5.083106   9.737704
    31  H    6.915103   7.838170   2.031994   4.297446   9.780770
    32  H    5.734364   7.675490   4.215314   2.675008   4.561393
    33  H    6.542613   8.626349   6.459482   4.555170   2.688060
    34  H    9.104451  11.238105   9.614865   7.474614   2.068822
    35  H    7.547624   9.630360   8.425635   6.438067   2.094069
    36  H    8.871595  10.976863   8.556548   6.423266   2.125039
    37  H    9.785936  12.048222   9.679668   7.471198   2.068553
    38  H    9.932444  12.230797   8.683319   6.431688   2.125246
    39  H    9.042653  11.358247   8.552607   6.414499   2.092143
    40  H    8.388837  10.699299   6.658623   4.536432   2.692768
    41  H    7.723313   9.895695   4.502328   2.639185   4.562572
                    6          7          8          9         10
     6  N    0.000000
     7  C    3.018299   0.000000
     8  C    2.977927   1.500804   0.000000
     9  C    4.771349   3.570956   2.200233   0.000000
    10  C    2.385467   2.568248   1.355260   2.439492   0.000000
    11  C    1.325990   3.231211   2.561207   3.877561   1.465268
    12  C    2.367384   4.583835   3.776906   4.612785   2.497420
    13  C    2.682446   5.437975   4.901605   5.961708   3.721550
    14  C    1.322556   4.225416   4.292625   6.023695   3.597106
    15  C    2.856565   4.316454   5.120854   7.210571   5.051184
    16  C    3.151377   4.052267   4.885076   6.893942   4.991083
    17  C    4.330424   4.401994   5.487577   7.497358   5.882526
    18  C    5.134207   4.989165   6.265888   8.372222   6.752181
    19  C    7.066947   6.322199   7.595119   9.466354   8.297703
    20  C    7.451144   6.886186   8.304381  10.383392   8.956096
    21  C    4.937542   5.202957   6.448005   8.635187   6.788531
    22  C    3.923716   4.884536   5.917817   8.091047   6.008262
    23  S    3.992105   4.031101   2.547768   1.734016   1.764232
    24  H    2.526796   1.077770   2.152505   4.314018   2.794536
    25  H    4.056832   1.082497   2.111865   3.766584   3.363966
    26  H    3.166244   1.084909   2.133458   4.063668   3.082095
    27  H    6.582033   5.558720   4.211978   2.027882   4.243345
    28  H    6.643518   4.873136   3.829331   1.987136   4.389297
    29  H    3.167001   5.664281   6.065781   7.937864   5.535667
    30  H    3.348756   5.143310   4.093838   4.411022   2.767337
    31  H    3.758843   6.476638   5.861106   6.713831   4.621124
    32  H    2.915649   4.058870   4.603145   6.422555   4.571486
    33  H    4.885580   4.647708   5.661129   7.505420   6.145573
    34  H    8.071286   7.111170   8.429089  10.256690   9.215904
    35  H    6.704680   5.687218   6.900946   8.653513   7.677613
    36  H    7.240815   6.885477   8.056629   9.911444   8.625813
    37  H    8.359276   7.538435   8.977293  10.984459   9.724628
    38  H    7.738946   7.567169   8.931469  11.051296   9.455498
    39  H    7.342016   6.669439   8.123471  10.226635   8.797339
    40  H    5.823906   5.947057   7.250210   9.444643   7.635796
    41  H    4.272247   5.451248   6.408855   8.557878   6.391381
                   11         12         13         14         15
    11  C    0.000000
    12  C    1.394240   0.000000
    13  C    2.352163   1.380067   0.000000
    14  C    2.265229   2.655781   2.238470   0.000000
    15  C    4.181698   5.019506   4.718314   2.486914   0.000000
    16  C    4.398461   5.421557   5.350422   3.192018   1.386320
    17  C    5.527419   6.662682   6.685090   4.512354   2.409885
    18  C    6.372717   7.488784   7.435123   5.206332   2.828517
    19  C    8.195156   9.414094   9.507153   7.324848   5.072524
    20  C    8.665217   9.787274   9.708246   7.489729   5.075461
    21  C    6.209690   7.185906   6.971109   4.777037   2.413790
    22  C    5.208774   6.034746   5.690346   3.542242   1.382615
    23  S    2.811266   3.145144   4.513726   5.059064   6.747275
    24  H    2.991865   4.276919   4.930753   3.560949   3.606270
    25  H    4.192911   5.492993   6.396408   5.231921   5.148366
    26  H    3.614216   5.008196   5.760404   4.303505   4.005900
    27  H    5.558173   5.990267   7.353019   7.765371   9.104797
    28  H    5.843646   6.590870   7.944638   7.930349   8.865508
    29  H    4.246205   4.493425   3.652272   1.982577   2.081286
    30  H    2.171103   1.071605   2.141004   3.726960   6.075149
    31  H    3.344218   2.135696   1.076897   3.206303   5.636402
    32  H    4.011193   4.997892   5.008823   3.075670   2.130022
    33  H    5.967611   7.150176   7.287390   5.215112   3.362675
    34  H    9.180609  10.423119  10.540671   8.353684   6.076381
    35  H    7.730498   9.005229   9.239052   7.137039   5.106470
    36  H    8.404874   9.549494   9.538725   7.367698   5.107850
    37  H    9.539597  10.710423  10.694677   8.476680   6.078449
    38  H    9.010544  10.039790   9.813534   7.594665   5.125391
    39  H    8.517247   9.621922   9.560672   7.397260   5.096189
    40  H    7.065370   8.003137   7.748538   5.617995   3.365150
    41  H    5.474972   6.124490   5.638082   3.698014   2.128544
                   16         17         18         19         20
    16  C    0.000000
    17  C    1.380322   0.000000
    18  C    2.426454   1.401783   0.000000
    19  C    4.209527   2.835567   2.438632   0.000000
    20  C    4.855712   3.728854   2.437518   2.455138   0.000000
    21  C    2.754602   2.385622   1.397603   3.722652   2.830449
    22  C    2.372392   2.748235   2.422737   4.850831   4.211949
    23  S    6.619549   7.503971   8.449230   9.840648  10.651515
    24  H    3.661493   4.140040   4.563235   6.250098   6.477403
    25  H    4.879288   4.998609   5.398772   6.520966   7.003044
    26  H    3.417446   3.617937   4.373323   5.478231   6.347398
    27  H    8.709952   9.309891  10.267559  11.181477  12.279729
    28  H    8.390320   8.768693   9.606153  10.330522  11.412598
    29  H    3.189123   4.379868   4.775164   7.005973   6.822008
    30  H    6.425135   7.634072   8.480547  10.345673  10.768230
    31  H    6.325340   7.678326   8.407492  10.507442  10.653208
    32  H    1.073683   2.124600   3.391834   4.821697   5.804847
    33  H    2.106992   1.071396   2.154804   2.511621   4.101388
    34  H    5.271668   3.894670   3.332846   1.080754   2.520941
    35  H    4.066553   2.737216   2.762772   1.082781   3.319962
    36  H    4.191092   2.924259   2.764923   1.090235   3.004965
    37  H    5.731062   4.497646   3.332323   2.526787   1.080790
    38  H    5.027847   4.028430   2.772413   2.996866   1.090482
    39  H    5.098283   4.123901   2.751294   3.323601   1.082802
    40  H    3.825084   3.372055   2.153336   4.097842   2.506606
    41  H    3.351094   3.824229   3.388696   5.801333   4.824115
                   21         22         23         24         25
    21  C    0.000000
    22  C    1.384425   0.000000
    23  S    8.544351   7.755138   0.000000
    24  H    4.511326   4.050564   4.448925   0.000000
    25  H    5.645859   5.514653   4.586788   1.772937   0.000000
    26  H    4.842269   4.669654   4.524064   1.742041   1.756301
    27  H   10.606576  10.058595   2.850739   6.339681   5.665351
    28  H   10.029435   9.674131   3.573949   5.783012   4.699512
    29  H    4.075289   2.757190   7.037162   4.869040   6.593760
    30  H    8.204331   7.074274   2.777447   4.965367   5.957184
    31  H    7.879022   6.556312   5.148345   5.967379   7.411519
    32  H    3.828202   3.348315   6.058979   3.861221   4.987623
    33  H    3.370085   3.818967   7.644894   4.627227   5.187075
    34  H    4.491927   5.727342  10.740275   7.070284   7.183295
    35  H    4.135847   5.107541   9.132917   5.781691   5.854293
    36  H    4.001845   5.005720  10.150902   6.790733   7.218484
    37  H    3.890256   5.273188  11.379122   7.234347   7.551244
    38  H    2.916285   4.203105  11.176192   7.075282   7.793923
    39  H    2.731045   4.060153  10.509235   6.171700   6.703021
    40  H    1.071266   2.111335   9.398248   5.209005   6.263402
    41  H    2.127147   1.076059   8.113559   4.497073   6.050728
                   26         27         28         29         30
    26  H    0.000000
    27  H    5.942230   0.000000
    28  H    5.244835   1.676824   0.000000
    29  H    5.571577   9.712542   9.797042   0.000000
    30  H    5.652405   5.507855   6.318984   5.539644   0.000000
    31  H    6.826672   7.932582   8.675533   4.298133   2.477184
    32  H    3.356034   8.115855   7.930797   3.438259   5.951332
    33  H    3.698020   9.199512   8.610101   5.249062   8.065221
    34  H    6.299649  11.944912  10.992931   8.008204  11.342248
    35  H    4.774063  10.296122   9.411202   7.106820   9.879367
    36  H    5.986734  11.587599  10.855694   6.883094  10.506693
    37  H    6.958242  12.830491  11.867488   7.871942  11.670654
    38  H    7.023712  12.962119  12.191896   6.653375  11.059252
    39  H    6.289714  12.168899  11.271389   6.790305  10.580780
    40  H    5.677798  11.440834  10.797865   4.785148   9.009205
    41  H    5.415367  10.536749  10.210438   2.693550   7.144578
                   31         32         33         34         35
    31  H    0.000000
    32  H    5.972398   0.000000
    33  H    8.289999   2.409846   0.000000
    34  H   11.546376   5.896112   3.562406   0.000000
    35  H   10.268686   4.511147   2.122143   1.740261   0.000000
    36  H   10.497748   4.708593   2.526134   1.759527   1.761568
    37  H   11.658678   6.616560   4.665095   2.118856   3.393135
    38  H   10.702368   5.987823   4.480088   3.124824   3.983796
    39  H   10.496441   6.107110   4.652107   3.400854   4.016855
    40  H    8.616324   4.898694   4.282479   4.662034   4.668237
    41  H    6.401765   4.242634   4.895015   6.613733   6.118208
                   36         37         38         39         40
    36  H    0.000000
    37  H    3.149493   0.000000
    38  H    3.183835   1.759807   0.000000
    39  H    3.989113   1.740665   1.761726   0.000000
    40  H    4.452499   3.559365   2.500359   2.129375   0.000000
    41  H    5.966801   5.897593   4.719343   4.505150   2.411481
                   41
    41  H    0.000000
 Symmetry turned off by external request.
 Stoichiometry    C16H18N6S
 Framework group  C1[X(C16H18N6S)]
 Deg. of freedom   117
 Full point group                 C1      NOp   1
 Rotational constants (GHZ):      0.3808903      0.1252171      0.0985773
 Standard basis: 6-31G(d) (6D, 7F)
 Integral buffers will be    131072 words long.
 Raffenetti 1 integral format.
 Two-electron integral symmetry is turned off.
   385 basis functions,   740 primitive gaussians,   385 cartesian basis functions
    86 alpha electrons       86 beta electrons
       nuclear repulsion energy      1957.6829126972 Hartrees.
 NAtoms=   41 NActive=   41 NUniq=   41 SFac= 7.50D-01 NAtFMM=   80 NAOKFM=F Big=F
 One-electron integrals computed using PRISM.
 NBasis=   385 RedAO= T  NBF=   385
 NBsUse=   385 1.00D-06 NBFU=   385
 Harris functional with IExCor=  205 diagonalized for initial guess.
 ExpMin= 1.17D-01 ExpMax= 2.19D+04 ExpMxC= 3.30D+03 IAcc=1 IRadAn=         1 AccDes= 0.00D+00
 HarFok:  IExCor=  205 AccDes= 0.00D+00 IRadAn=         1 IDoV= 1
 ScaDFX=  1.000000  1.000000  1.000000  1.000000
 FoFCou: FMM=F IPFlag=           0 FMFlag=      100000 FMFlg1=           0
         NFxFlg=           0 DoJE=T BraDBF=F KetDBF=T FulRan=T
         Omega=  0.000000  0.000000  1.000000  0.000000  0.000000 ICntrl=     500 IOpCl=  0
         NMat0=    1 NMatS0=    1 NMatT0=    0 NMatD0=    1 NMtDS0=    0 NMtDT0=    0
         I1Cent=           4 NGrid=           0.
 Symmetry not used in FoFCou.
 Requested convergence on RMS density matrix=1.00D-08 within 128 cycles.
 Requested convergence on MAX density matrix=1.00D-06.
 Requested convergence on             energy=1.00D-06.
 No special actions if energy rises.
 Integral accuracy reduced to 1.0D-05 until final iterations.
 Initial convergence to 1.0D-05 achieved.  Increase integral accuracy.
 SCF Done:  E(RHF) =  -1340.57791358     A.U. after   16 cycles
             Convg  =    0.5868D-08             -V/T =  2.0009

 **********************************************************************

            Population analysis using the SCF density.

 **********************************************************************

 Alpha  occ. eigenvalues --  -91.97222 -15.59307 -15.57276 -15.56787 -15.54718
 Alpha  occ. eigenvalues --  -15.54384 -15.54256 -11.35049 -11.33945 -11.30202
 Alpha  occ. eigenvalues --  -11.28182 -11.27841 -11.27016 -11.25362 -11.25109
 Alpha  occ. eigenvalues --  -11.25104 -11.25022 -11.22673 -11.22450 -11.21694
 Alpha  occ. eigenvalues --  -11.21672 -11.21557 -11.20367  -8.98360  -6.66631
 Alpha  occ. eigenvalues --   -6.66517  -6.66335  -1.33096  -1.31138  -1.25425
 Alpha  occ. eigenvalues --   -1.22945  -1.21460  -1.19078  -1.12839  -1.07956
 Alpha  occ. eigenvalues --   -1.03636  -1.02475  -1.01376  -0.99502  -0.96864
 Alpha  occ. eigenvalues --   -0.92885  -0.89935  -0.87871  -0.85705  -0.82656
 Alpha  occ. eigenvalues --   -0.79946  -0.78307  -0.76767  -0.72795  -0.72648
 Alpha  occ. eigenvalues --   -0.69635  -0.69092  -0.66718  -0.65404  -0.64824
 Alpha  occ. eigenvalues --   -0.63732  -0.63327  -0.61875  -0.60467  -0.59526
 Alpha  occ. eigenvalues --   -0.58974  -0.58335  -0.57881  -0.57220  -0.55956
 Alpha  occ. eigenvalues --   -0.55805  -0.55311  -0.54765  -0.53118  -0.52928
 Alpha  occ. eigenvalues --   -0.52484  -0.50488  -0.48702  -0.48224  -0.47193
 Alpha  occ. eigenvalues --   -0.46401  -0.44470  -0.42275  -0.41836  -0.40130
 Alpha  occ. eigenvalues --   -0.38849  -0.37927  -0.33101  -0.32643  -0.29135
 Alpha  occ. eigenvalues --   -0.26786
 Alpha virt. eigenvalues --    0.09611   0.14529   0.15073   0.15929   0.17135
 Alpha virt. eigenvalues --    0.19669   0.22636   0.23174   0.25004   0.26249
 Alpha virt. eigenvalues --    0.26576   0.26880   0.27549   0.27778   0.28195
 Alpha virt. eigenvalues --    0.29688   0.29784   0.31377   0.32429   0.33316
 Alpha virt. eigenvalues --    0.33349   0.33649   0.34927   0.35101   0.35483
 Alpha virt. eigenvalues --    0.36296   0.36386   0.38709   0.39200   0.40169
 Alpha virt. eigenvalues --    0.41083   0.41716   0.43317   0.44601   0.45383
 Alpha virt. eigenvalues --    0.46579   0.47817   0.49222   0.51553   0.52519
 Alpha virt. eigenvalues --    0.52984   0.53451   0.54739   0.56012   0.57709
 Alpha virt. eigenvalues --    0.57884   0.59370   0.60213   0.61650   0.63536
 Alpha virt. eigenvalues --    0.67570   0.68262   0.68968   0.70391   0.70656
 Alpha virt. eigenvalues --    0.72890   0.74090   0.74383   0.74848   0.75888
 Alpha virt. eigenvalues --    0.77024   0.77328   0.78188   0.78717   0.79565
 Alpha virt. eigenvalues --    0.79874   0.80173   0.81718   0.82469   0.82921
 Alpha virt. eigenvalues --    0.83398   0.84200   0.84701   0.85337   0.85473
 Alpha virt. eigenvalues --    0.86603   0.87325   0.89179   0.89712   0.91030
 Alpha virt. eigenvalues --    0.91859   0.92790   0.93827   0.94156   0.94780
 Alpha virt. eigenvalues --    0.95435   0.96534   0.97022   0.97883   0.98524
 Alpha virt. eigenvalues --    0.99188   0.99983   1.00932   1.03625   1.04349
 Alpha virt. eigenvalues --    1.04920   1.05842   1.06399   1.07358   1.08076
 Alpha virt. eigenvalues --    1.09769   1.10062   1.11137   1.12049   1.12552
 Alpha virt. eigenvalues --    1.12757   1.12972   1.13413   1.13764   1.14959
 Alpha virt. eigenvalues --    1.15421   1.15587   1.16274   1.17032   1.17574
 Alpha virt. eigenvalues --    1.18562   1.18783   1.19818   1.20311   1.21028
 Alpha virt. eigenvalues --    1.21349   1.21765   1.22622   1.23118   1.23683
 Alpha virt. eigenvalues --    1.24772   1.25180   1.25990   1.27283   1.28213
 Alpha virt. eigenvalues --    1.28662   1.29127   1.29595   1.30897   1.31339
 Alpha virt. eigenvalues --    1.32219   1.33364   1.33647   1.35344   1.37048
 Alpha virt. eigenvalues --    1.39023   1.41836   1.43616   1.44139   1.45253
 Alpha virt. eigenvalues --    1.46598   1.47810   1.48015   1.49570   1.51440
 Alpha virt. eigenvalues --    1.52607   1.54189   1.57081   1.59953   1.62128
 Alpha virt. eigenvalues --    1.62639   1.63827   1.64987   1.65976   1.66469
 Alpha virt. eigenvalues --    1.67703   1.70850   1.74189   1.74477   1.75448
 Alpha virt. eigenvalues --    1.75885   1.76858   1.77658   1.78248   1.79305
 Alpha virt. eigenvalues --    1.80034   1.81035   1.81901   1.84750   1.85493
 Alpha virt. eigenvalues --    1.86445   1.89277   1.90004   1.90915   1.93492
 Alpha virt. eigenvalues --    2.00587   2.02160   2.04081   2.08024   2.10356
 Alpha virt. eigenvalues --    2.11021   2.12786   2.13765   2.14330   2.15320
 Alpha virt. eigenvalues --    2.15742   2.18532   2.19285   2.22399   2.22782
 Alpha virt. eigenvalues --    2.23307   2.24116   2.24895   2.26705   2.27167
 Alpha virt. eigenvalues --    2.28314   2.29828   2.30918   2.33164   2.35329
 Alpha virt. eigenvalues --    2.35914   2.37991   2.39186   2.40483   2.41850
 Alpha virt. eigenvalues --    2.42813   2.46232   2.47343   2.48354   2.48603
 Alpha virt. eigenvalues --    2.49791   2.50189   2.51153   2.53143   2.54735
 Alpha virt. eigenvalues --    2.55461   2.57506   2.57832   2.59128   2.59317
 Alpha virt. eigenvalues --    2.59877   2.61643   2.63523   2.64905   2.65028
 Alpha virt. eigenvalues --    2.66071   2.67345   2.68769   2.70206   2.71899
 Alpha virt. eigenvalues --    2.73861   2.75636   2.78382   2.78939   2.80967
 Alpha virt. eigenvalues --    2.82573   2.84053   2.86378   2.87291   2.88069
 Alpha virt. eigenvalues --    2.93442   2.93744   2.95131   2.96210   2.96449
 Alpha virt. eigenvalues --    2.98242   2.99352   3.00816   3.01743   3.02323
 Alpha virt. eigenvalues --    3.05089   3.07287   3.08676   3.11876   3.13795
 Alpha virt. eigenvalues --    3.14638   3.16145   3.21602   3.23773   3.25920
 Alpha virt. eigenvalues --    3.28029   3.29669   3.35190   3.40684   3.41361
 Alpha virt. eigenvalues --    3.52537   3.59489   3.60830   3.72929   3.86631
 Alpha virt. eigenvalues --    3.87678   4.27382   4.37257   4.47581   4.51088
 Alpha virt. eigenvalues --    4.52428   4.53857   4.55492   4.56164   4.58225
 Alpha virt. eigenvalues --    4.58978   4.65356   4.67952   4.70167   4.71848
 Alpha virt. eigenvalues --    4.76736   4.77888   4.80366   4.81258   4.83111
 Alpha virt. eigenvalues --    4.92278   4.95115   5.08691   5.22426
          Condensed to atoms (all electrons):
              1          2          3          4          5          6
     1  N    6.915140  -0.079787   0.000000   0.000000   0.000000  -0.000002
     2  N   -0.079787   7.069819   0.000000   0.000000   0.000000   0.000000
     3  N    0.000000   0.000000   6.946797  -0.109669   0.000000  -0.102647
     4  N    0.000000   0.000000  -0.109669   7.381091   0.000000  -0.102980
     5  N    0.000000   0.000000   0.000000   0.000000   7.246436   0.000000
     6  N   -0.000002   0.000000  -0.102647  -0.102980   0.000000   7.061259
     7  C   -0.062887  -0.000059  -0.000003   0.000025   0.000000  -0.012571
     8  C    0.432780   0.003422   0.000021  -0.000007   0.000000  -0.002096
     9  C    0.538651   0.305064   0.000000   0.000000   0.000000  -0.000017
    10  C   -0.089488   0.002494  -0.000099  -0.000134   0.000000  -0.085586
    11  C    0.004848  -0.000031  -0.026683   0.002102   0.000000   0.505971
    12  C   -0.000121   0.000000  -0.052104   0.000450   0.000000  -0.072253
    13  C    0.000001   0.000000   0.488044   0.002027   0.000000  -0.013838
    14  C   -0.000002   0.000000   0.515018   0.319970   0.000000   0.498001
    15  C    0.000000   0.000000   0.002643   0.197094   0.000137   0.001967
    16  C    0.000000   0.000000  -0.000007  -0.049440   0.003555  -0.002752
    17  C    0.000000   0.000000  -0.000001   0.004704  -0.060205  -0.000303
    18  C    0.000000   0.000000   0.000000   0.000191   0.290357   0.000020
    19  C    0.000000   0.000000   0.000000   0.000000   0.265936   0.000000
    20  C    0.000000   0.000000   0.000000   0.000000   0.267112   0.000000
    21  C    0.000000   0.000000   0.000000   0.004326  -0.061020  -0.000039
    22  C    0.000000   0.000000  -0.000132  -0.058821   0.003702  -0.000238
    23  S   -0.080225  -0.067772  -0.000002   0.000002   0.000000   0.002283
    24  H    0.002898   0.000001   0.000012  -0.000163   0.000000   0.002775
    25  H   -0.001002  -0.000016   0.000000  -0.000001   0.000000   0.000556
    26  H    0.000510   0.000000   0.000000   0.000002  -0.000004  -0.000003
    27  H    0.002440   0.330948   0.000000   0.000000   0.000000   0.000000
    28  H    0.004813   0.322181   0.000000   0.000000   0.000000   0.000000
    29  H    0.000000   0.000000   0.006748   0.326267   0.000000   0.003804
    30  H   -0.000005   0.000000   0.002709   0.000015   0.000000   0.002503
    31  H    0.000000   0.000000  -0.042801  -0.000050   0.000000  -0.000571
    32  H    0.000000   0.000000  -0.000015  -0.003409  -0.000070   0.001804
    33  H    0.000000   0.000000   0.000000  -0.000104  -0.004004  -0.000007
    34  H    0.000000   0.000000   0.000000   0.000000  -0.036813   0.000000
    35  H    0.000000   0.000000   0.000000   0.000000  -0.044607   0.000000
    36  H    0.000000   0.000000   0.000000   0.000000  -0.057666   0.000000
    37  H    0.000000   0.000000   0.000000   0.000000  -0.036903   0.000000
    38  H    0.000000   0.000000   0.000000   0.000000  -0.058052   0.000000
    39  H    0.000000   0.000000   0.000000   0.000000  -0.044581   0.000000
    40  H    0.000000   0.000000   0.000000  -0.000114  -0.004177   0.000000
    41  H    0.000000   0.000000  -0.000025   0.000165  -0.000074  -0.000027
              7          8          9         10         11         12
     1  N   -0.062887   0.432780   0.538651  -0.089488   0.004848  -0.000121
     2  N   -0.000059   0.003422   0.305064   0.002494  -0.000031   0.000000
     3  N   -0.000003   0.000021   0.000000  -0.000099  -0.026683  -0.052104
     4  N    0.000025  -0.000007   0.000000  -0.000134   0.002102   0.000450
     5  N    0.000000   0.000000   0.000000   0.000000   0.000000   0.000000
     6  N   -0.012571  -0.002096  -0.000017  -0.085586   0.505971  -0.072253
     7  C    5.098028   0.355645   0.006450  -0.056848   0.000342   0.000105
     8  C    0.355645   4.563864  -0.088249   0.593052  -0.009676   0.002946
     9  C    0.006450  -0.088249   4.614869  -0.053049   0.002612  -0.000043
    10  C   -0.056848   0.593052  -0.053049   5.495496   0.369216  -0.073001
    11  C    0.000342  -0.009676   0.002612   0.369216   4.378948   0.508948
    12  C    0.000105   0.002946  -0.000043  -0.073001   0.508948   5.243248
    13  C    0.000002  -0.000091  -0.000003   0.003305  -0.045148   0.515863
    14  C   -0.000340   0.000072   0.000002   0.005147  -0.049507  -0.028052
    15  C   -0.000125  -0.000031   0.000000   0.000024   0.000098   0.000008
    16  C   -0.000433  -0.000007   0.000000   0.000059  -0.000179  -0.000004
    17  C   -0.000147   0.000009   0.000000   0.000002   0.000000   0.000000
    18  C   -0.000003   0.000001   0.000000   0.000000   0.000000   0.000000
    19  C    0.000000   0.000000   0.000000   0.000000   0.000000   0.000000
    20  C    0.000000   0.000000   0.000000   0.000000   0.000000   0.000000
    21  C    0.000003   0.000000   0.000000   0.000000   0.000000   0.000000
    22  C   -0.000041   0.000000   0.000000   0.000001  -0.000013  -0.000001
    23  S    0.002624  -0.082875   0.337642   0.275215  -0.042478  -0.000030
    24  H    0.391560  -0.030932  -0.000128  -0.004292   0.000309   0.000074
    25  H    0.383124  -0.039232   0.000068   0.004235  -0.000280   0.000003
    26  H    0.388078  -0.034717  -0.000177  -0.003631   0.000954   0.000015
    27  H    0.000002  -0.000166  -0.026179   0.000047  -0.000001   0.000000
    28  H   -0.000020   0.000291  -0.023142  -0.000074   0.000000   0.000000
    29  H    0.000000   0.000000   0.000000   0.000006  -0.000102   0.000019
    30  H   -0.000001   0.000019   0.000015  -0.000929  -0.025332   0.374293
    31  H    0.000000   0.000001   0.000000  -0.000053   0.002445  -0.051899
    32  H    0.000010   0.000001   0.000000  -0.000025  -0.000007   0.000008
    33  H    0.000000   0.000000   0.000000   0.000000   0.000000   0.000000
    34  H    0.000000   0.000000   0.000000   0.000000   0.000000   0.000000
    35  H    0.000000   0.000000   0.000000   0.000000   0.000000   0.000000
    36  H    0.000000   0.000000   0.000000   0.000000   0.000000   0.000000
    37  H    0.000000   0.000000   0.000000   0.000000   0.000000   0.000000
    38  H    0.000000   0.000000   0.000000   0.000000   0.000000   0.000000
    39  H    0.000000   0.000000   0.000000   0.000000   0.000000   0.000000
    40  H    0.000000   0.000000   0.000000   0.000000   0.000000   0.000000
    41  H    0.000000   0.000000   0.000000   0.000000   0.000000   0.000000
             13         14         15         16         17         18
     1  N    0.000001  -0.000002   0.000000   0.000000   0.000000   0.000000
     2  N    0.000000   0.000000   0.000000   0.000000   0.000000   0.000000
     3  N    0.488044   0.515018   0.002643  -0.000007  -0.000001   0.000000
     4  N    0.002027   0.319970   0.197094  -0.049440   0.004704   0.000191
     5  N    0.000000   0.000000   0.000137   0.003555  -0.060205   0.290357
     6  N   -0.013838   0.498001   0.001967  -0.002752  -0.000303   0.000020
     7  C    0.000002  -0.000340  -0.000125  -0.000433  -0.000147  -0.000003
     8  C   -0.000091   0.000072  -0.000031  -0.000007   0.000009   0.000001
     9  C   -0.000003   0.000002   0.000000   0.000000   0.000000   0.000000
    10  C    0.003305   0.005147   0.000024   0.000059   0.000002   0.000000
    11  C   -0.045148  -0.049507   0.000098  -0.000179   0.000000   0.000000
    12  C    0.515863  -0.028052   0.000008  -0.000004   0.000000   0.000000
    13  C    4.613682  -0.071592  -0.000067   0.000001   0.000000   0.000000
    14  C   -0.071592   3.993663  -0.028251  -0.001830  -0.000068   0.000017
    15  C   -0.000067  -0.028251   4.552721   0.588240  -0.045453  -0.023506
    16  C    0.000001  -0.001830   0.588240   4.859749   0.530708  -0.032920
    17  C    0.000000  -0.000068  -0.045453   0.530708   5.024036   0.563371
    18  C    0.000000   0.000017  -0.023506  -0.032920   0.563371   4.421493
    19  C    0.000000   0.000000   0.000010  -0.000253  -0.009694  -0.046673
    20  C    0.000000   0.000000   0.000010  -0.000067   0.002412  -0.047435
    21  C    0.000000  -0.000045  -0.049166  -0.039777  -0.039750   0.575080
    22  C    0.000004   0.001199   0.593229  -0.047265  -0.041150  -0.034152
    23  S    0.000300  -0.000110   0.000000   0.000000   0.000000   0.000000
    24  H   -0.000005   0.000241   0.000742   0.000064  -0.000131  -0.000029
    25  H    0.000000   0.000016   0.000006   0.000021   0.000005   0.000000
    26  H    0.000000  -0.000122  -0.000051   0.000912   0.001110   0.000034
    27  H    0.000000   0.000000   0.000000   0.000000   0.000000   0.000000
    28  H    0.000000   0.000000   0.000000   0.000000   0.000000   0.000000
    29  H    0.000366  -0.021735  -0.023590   0.001659  -0.000010  -0.000001
    30  H   -0.022044   0.000459   0.000000   0.000000   0.000000   0.000000
    31  H    0.406815   0.003576   0.000003   0.000000   0.000000   0.000000
    32  H   -0.000003   0.002267  -0.023992   0.376492  -0.030678   0.001597
    33  H    0.000000  -0.000003   0.001665  -0.025820   0.380085  -0.030948
    34  H    0.000000   0.000000   0.000000   0.000007   0.000470   0.003338
    35  H    0.000000   0.000000  -0.000007   0.000161  -0.001280  -0.003446
    36  H    0.000000   0.000000  -0.000006  -0.000234   0.002156   0.002123
    37  H    0.000000   0.000000   0.000000   0.000002  -0.000052   0.003285
    38  H    0.000000   0.000000  -0.000005  -0.000019   0.000214   0.002049
    39  H    0.000000   0.000000  -0.000009   0.000006  -0.000061  -0.003226
    40  H    0.000000   0.000000   0.001765   0.000280   0.002820  -0.030127
    41  H    0.000000   0.000211  -0.033164   0.003317   0.000254   0.001620
             19         20         21         22         23         24
     1  N    0.000000   0.000000   0.000000   0.000000  -0.080225   0.002898
     2  N    0.000000   0.000000   0.000000   0.000000  -0.067772   0.000001
     3  N    0.000000   0.000000   0.000000  -0.000132  -0.000002   0.000012
     4  N    0.000000   0.000000   0.004326  -0.058821   0.000002  -0.000163
     5  N    0.265936   0.267112  -0.061020   0.003702   0.000000   0.000000
     6  N    0.000000   0.000000  -0.000039  -0.000238   0.002283   0.002775
     7  C    0.000000   0.000000   0.000003  -0.000041   0.002624   0.391560
     8  C    0.000000   0.000000   0.000000   0.000000  -0.082875  -0.030932
     9  C    0.000000   0.000000   0.000000   0.000000   0.337642  -0.000128
    10  C    0.000000   0.000000   0.000000   0.000001   0.275215  -0.004292
    11  C    0.000000   0.000000   0.000000  -0.000013  -0.042478   0.000309
    12  C    0.000000   0.000000   0.000000  -0.000001  -0.000030   0.000074
    13  C    0.000000   0.000000   0.000000   0.000004   0.000300  -0.000005
    14  C    0.000000   0.000000  -0.000045   0.001199  -0.000110   0.000241
    15  C    0.000010   0.000010  -0.049166   0.593229   0.000000   0.000742
    16  C   -0.000253  -0.000067  -0.039777  -0.047265   0.000000   0.000064
    17  C   -0.009694   0.002412  -0.039750  -0.041150   0.000000  -0.000131
    18  C   -0.046673  -0.047435   0.575080  -0.034152   0.000000  -0.000029
    19  C    4.932277  -0.051584   0.002279  -0.000074   0.000000   0.000000
    20  C   -0.051584   4.931755  -0.009877  -0.000283   0.000000   0.000000
    21  C    0.002279  -0.009877   5.013097   0.527703   0.000000   0.000013
    22  C   -0.000074  -0.000283   0.527703   4.901274   0.000000   0.000280
    23  S    0.000000   0.000000   0.000000   0.000000  15.386395   0.000097
    24  H    0.000000   0.000000   0.000013   0.000280   0.000097   0.473904
    25  H    0.000000   0.000000  -0.000001   0.000000  -0.000045  -0.023587
    26  H   -0.000001   0.000000  -0.000013  -0.000042   0.000023  -0.022622
    27  H    0.000000   0.000000   0.000000   0.000000   0.000275   0.000000
    28  H    0.000000   0.000000   0.000000   0.000000   0.003521   0.000000
    29  H    0.000000   0.000000   0.000063  -0.002033   0.000000   0.000001
    30  H    0.000000   0.000000   0.000000   0.000000   0.000253  -0.000001
    31  H    0.000000   0.000000   0.000000   0.000000  -0.000013   0.000000
    32  H   -0.000005   0.000002   0.000208   0.003509   0.000000  -0.000005
    33  H    0.000396  -0.000056   0.002781   0.000358   0.000000  -0.000001
    34  H    0.404050  -0.007486  -0.000049   0.000002   0.000000   0.000000
    35  H    0.404866   0.003931  -0.000091   0.000005   0.000000   0.000000
    36  H    0.391032   0.000683   0.000311  -0.000018   0.000000   0.000000
    37  H   -0.007470   0.404274   0.000490   0.000007   0.000000   0.000000
    38  H    0.000599   0.390898   0.002174  -0.000213   0.000000   0.000000
    39  H    0.003980   0.404682  -0.001058   0.000126   0.000000   0.000000
    40  H   -0.000060   0.000471   0.379578  -0.025994   0.000000   0.000000
    41  H    0.000002  -0.000004  -0.027236   0.376787   0.000000   0.000000
             25         26         27         28         29         30
     1  N   -0.001002   0.000510   0.002440   0.004813   0.000000  -0.000005
     2  N   -0.000016   0.000000   0.330948   0.322181   0.000000   0.000000
     3  N    0.000000   0.000000   0.000000   0.000000   0.006748   0.002709
     4  N   -0.000001   0.000002   0.000000   0.000000   0.326267   0.000015
     5  N    0.000000  -0.000004   0.000000   0.000000   0.000000   0.000000
     6  N    0.000556  -0.000003   0.000000   0.000000   0.003804   0.002503
     7  C    0.383124   0.388078   0.000002  -0.000020   0.000000  -0.000001
     8  C   -0.039232  -0.034717  -0.000166   0.000291   0.000000   0.000019
     9  C    0.000068  -0.000177  -0.026179  -0.023142   0.000000   0.000015
    10  C    0.004235  -0.003631   0.000047  -0.000074   0.000006  -0.000929
    11  C   -0.000280   0.000954  -0.000001   0.000000  -0.000102  -0.025332
    12  C    0.000003   0.000015   0.000000   0.000000   0.000019   0.374293
    13  C    0.000000   0.000000   0.000000   0.000000   0.000366  -0.022044
    14  C    0.000016  -0.000122   0.000000   0.000000  -0.021735   0.000459
    15  C    0.000006  -0.000051   0.000000   0.000000  -0.023590   0.000000
    16  C    0.000021   0.000912   0.000000   0.000000   0.001659   0.000000
    17  C    0.000005   0.001110   0.000000   0.000000  -0.000010   0.000000
    18  C    0.000000   0.000034   0.000000   0.000000  -0.000001   0.000000
    19  C    0.000000  -0.000001   0.000000   0.000000   0.000000   0.000000
    20  C    0.000000   0.000000   0.000000   0.000000   0.000000   0.000000
    21  C   -0.000001  -0.000013   0.000000   0.000000   0.000063   0.000000
    22  C    0.000000  -0.000042   0.000000   0.000000  -0.002033   0.000000
    23  S   -0.000045   0.000023   0.000275   0.003521   0.000000   0.000253
    24  H   -0.023587  -0.022622   0.000000   0.000000   0.000001  -0.000001
    25  H    0.519307  -0.025638   0.000000   0.000008   0.000000   0.000000
    26  H   -0.025638   0.503946   0.000000   0.000000   0.000000   0.000000
    27  H    0.000000   0.000000   0.322781  -0.016839   0.000000   0.000000
    28  H    0.000008   0.000000  -0.016839   0.312447   0.000000   0.000000
    29  H    0.000000   0.000000   0.000000   0.000000   0.308563  -0.000001
    30  H    0.000000   0.000000   0.000000   0.000000  -0.000001   0.447138
    31  H    0.000000   0.000000   0.000000   0.000000  -0.000034  -0.000103
    32  H    0.000000   0.000062   0.000000   0.000000  -0.000067   0.000000
    33  H    0.000000   0.000039   0.000000   0.000000   0.000002   0.000000
    34  H    0.000000   0.000000   0.000000   0.000000   0.000000   0.000000
    35  H    0.000000   0.000004   0.000000   0.000000   0.000000   0.000000
    36  H    0.000000   0.000000   0.000000   0.000000   0.000000   0.000000
    37  H    0.000000   0.000000   0.000000   0.000000   0.000000   0.000000
    38  H    0.000000   0.000000   0.000000   0.000000   0.000000   0.000000
    39  H    0.000000   0.000000   0.000000   0.000000   0.000000   0.000000
    40  H    0.000000   0.000000   0.000000   0.000000  -0.000001   0.000000
    41  H    0.000000   0.000000   0.000000   0.000000   0.001187   0.000000
             31         32         33         34         35         36
     1  N    0.000000   0.000000   0.000000   0.000000   0.000000   0.000000
     2  N    0.000000   0.000000   0.000000   0.000000   0.000000   0.000000
     3  N   -0.042801  -0.000015   0.000000   0.000000   0.000000   0.000000
     4  N   -0.000050  -0.003409  -0.000104   0.000000   0.000000   0.000000
     5  N    0.000000  -0.000070  -0.004004  -0.036813  -0.044607  -0.057666
     6  N   -0.000571   0.001804  -0.000007   0.000000   0.000000   0.000000
     7  C    0.000000   0.000010   0.000000   0.000000   0.000000   0.000000
     8  C    0.000001   0.000001   0.000000   0.000000   0.000000   0.000000
     9  C    0.000000   0.000000   0.000000   0.000000   0.000000   0.000000
    10  C   -0.000053  -0.000025   0.000000   0.000000   0.000000   0.000000
    11  C    0.002445  -0.000007   0.000000   0.000000   0.000000   0.000000
    12  C   -0.051899   0.000008   0.000000   0.000000   0.000000   0.000000
    13  C    0.406815  -0.000003   0.000000   0.000000   0.000000   0.000000
    14  C    0.003576   0.002267  -0.000003   0.000000   0.000000   0.000000
    15  C    0.000003  -0.023992   0.001665   0.000000  -0.000007  -0.000006
    16  C    0.000000   0.376492  -0.025820   0.000007   0.000161  -0.000234
    17  C    0.000000  -0.030678   0.380085   0.000470  -0.001280   0.002156
    18  C    0.000000   0.001597  -0.030948   0.003338  -0.003446   0.002123
    19  C    0.000000  -0.000005   0.000396   0.404050   0.404866   0.391032
    20  C    0.000000   0.000002  -0.000056  -0.007486   0.003931   0.000683
    21  C    0.000000   0.000208   0.002781  -0.000049  -0.000091   0.000311
    22  C    0.000000   0.003509   0.000358   0.000002   0.000005  -0.000018
    23  S   -0.000013   0.000000   0.000000   0.000000   0.000000   0.000000
    24  H    0.000000  -0.000005  -0.000001   0.000000   0.000000   0.000000
    25  H    0.000000   0.000000   0.000000   0.000000   0.000000   0.000000
    26  H    0.000000   0.000062   0.000039   0.000000   0.000004   0.000000
    27  H    0.000000   0.000000   0.000000   0.000000   0.000000   0.000000
    28  H    0.000000   0.000000   0.000000   0.000000   0.000000   0.000000
    29  H   -0.000034  -0.000067   0.000002   0.000000   0.000000   0.000000
    30  H   -0.000103   0.000000   0.000000   0.000000   0.000000   0.000000
    31  H    0.471510   0.000000   0.000000   0.000000   0.000000   0.000000
    32  H    0.000000   0.456541  -0.001911   0.000000   0.000000  -0.000002
    33  H    0.000000  -0.001911   0.475180   0.000163  -0.002107  -0.000157
    34  H    0.000000   0.000000   0.000163   0.515729  -0.025322  -0.030571
    35  H    0.000000   0.000000  -0.002107  -0.025322   0.534737  -0.044093
    36  H    0.000000  -0.000002  -0.000157  -0.030571  -0.044093   0.576563
    37  H    0.000000   0.000000   0.000000   0.001860   0.000249  -0.000066
    38  H    0.000000   0.000000   0.000005  -0.000050  -0.000358   0.002390
    39  H    0.000000   0.000000  -0.000001   0.000241   0.000019  -0.000355
    40  H    0.000000   0.000011  -0.000123   0.000000  -0.000003   0.000008
    41  H    0.000000  -0.000132   0.000013   0.000000   0.000000   0.000000
             37         38         39         40         41
     1  N    0.000000   0.000000   0.000000   0.000000   0.000000
     2  N    0.000000   0.000000   0.000000   0.000000   0.000000
     3  N    0.000000   0.000000   0.000000   0.000000  -0.000025
     4  N    0.000000   0.000000   0.000000  -0.000114   0.000165
     5  N   -0.036903  -0.058052  -0.044581  -0.004177  -0.000074
     6  N    0.000000   0.000000   0.000000   0.000000  -0.000027
     7  C    0.000000   0.000000   0.000000   0.000000   0.000000
     8  C    0.000000   0.000000   0.000000   0.000000   0.000000
     9  C    0.000000   0.000000   0.000000   0.000000   0.000000
    10  C    0.000000   0.000000   0.000000   0.000000   0.000000
    11  C    0.000000   0.000000   0.000000   0.000000   0.000000
    12  C    0.000000   0.000000   0.000000   0.000000   0.000000
    13  C    0.000000   0.000000   0.000000   0.000000   0.000000
    14  C    0.000000   0.000000   0.000000   0.000000   0.000211
    15  C    0.000000  -0.000005  -0.000009   0.001765  -0.033164
    16  C    0.000002  -0.000019   0.000006   0.000280   0.003317
    17  C   -0.000052   0.000214  -0.000061   0.002820   0.000254
    18  C    0.003285   0.002049  -0.003226  -0.030127   0.001620
    19  C   -0.007470   0.000599   0.003980  -0.000060   0.000002
    20  C    0.404274   0.390898   0.404682   0.000471  -0.000004
    21  C    0.000490   0.002174  -0.001058   0.379578  -0.027236
    22  C    0.000007  -0.000213   0.000126  -0.025994   0.376787
    23  S    0.000000   0.000000   0.000000   0.000000   0.000000
    24  H    0.000000   0.000000   0.000000   0.000000   0.000000
    25  H    0.000000   0.000000   0.000000   0.000000   0.000000
    26  H    0.000000   0.000000   0.000000   0.000000   0.000000
    27  H    0.000000   0.000000   0.000000   0.000000   0.000000
    28  H    0.000000   0.000000   0.000000   0.000000   0.000000
    29  H    0.000000   0.000000   0.000000  -0.000001   0.001187
    30  H    0.000000   0.000000   0.000000   0.000000   0.000000
    31  H    0.000000   0.000000   0.000000   0.000000   0.000000
    32  H    0.000000   0.000000   0.000000   0.000011  -0.000132
    33  H    0.000000   0.000005  -0.000001  -0.000123   0.000013
    34  H    0.001860  -0.000050   0.000241   0.000000   0.000000
    35  H    0.000249  -0.000358   0.000019  -0.000003   0.000000
    36  H   -0.000066   0.002390  -0.000355   0.000008   0.000000
    37  H    0.515107  -0.031027  -0.024892   0.000167   0.000000
    38  H   -0.031027   0.579055  -0.044304   0.000025  -0.000002
    39  H   -0.024892  -0.044304   0.534399  -0.002389   0.000001
    40  H    0.000167   0.000025  -0.002389   0.475902  -0.002123
    41  H    0.000000  -0.000002   0.000001  -0.002123   0.473255
 Mulliken atomic charges:
              1
     1  N   -0.588563
     2  N   -0.886264
     3  N   -0.627805
     4  N   -0.913541
     5  N   -0.669060
     6  N   -0.685013
     7  C   -0.492521
     8  C    0.335955
     9  C    0.385614
    10  C   -0.381088
    11  C    0.422645
    12  C   -0.368472
    13  C    0.122383
    14  C    0.861797
    15  C    0.287061
    16  C   -0.164226
    17  C   -0.283372
    18  C    0.387891
    19  C   -0.289613
    20  C   -0.289435
    21  C   -0.279986
    22  C   -0.197715
    23  S    0.264921
    24  H    0.208927
    25  H    0.182452
    26  H    0.191332
    27  H    0.386693
    28  H    0.396816
    29  H    0.398889
    30  H    0.221014
    31  H    0.211175
    32  H    0.217809
    33  H    0.204555
    34  H    0.174432
    35  H    0.177344
    36  H    0.157901
    37  H    0.174969
    38  H    0.156622
    39  H    0.177422
    40  H    0.204082
    41  H    0.205975
 Sum of Mulliken atomic charges =   0.00000
 Mulliken charges with hydrogens summed into heavy atoms:
              1
     1  N   -0.588563
     2  N   -0.102756
     3  N   -0.627805
     4  N   -0.514652
     5  N   -0.669060
     6  N   -0.685013
     7  C    0.090189
     8  C    0.335955
     9  C    0.385614
    10  C   -0.381088
    11  C    0.422645
    12  C   -0.147457
    13  C    0.333558
    14  C    0.861797
    15  C    0.287061
    16  C    0.053583
    17  C   -0.078816
    18  C    0.387891
    19  C    0.220064
    20  C    0.219578
    21  C   -0.075904
    22  C    0.008260
    23  S    0.264921
 Sum of Mulliken charges with hydrogens summed into heavy atoms =   0.00000
 Electronic spatial extent (au):  <R**2>=          10489.1646
 Charge=              0.0000 electrons
 Dipole moment (field-independent basis, Debye):
    X=              0.2539    Y=             -1.8552    Z=              1.2929  Tot=              2.2755
 Quadrupole moment (field-independent basis, Debye-Ang):
   XX=           -105.6509   YY=           -135.0608   ZZ=           -141.9502
   XY=              2.0883   XZ=             -9.3002   YZ=             -8.6550
 Traceless Quadrupole moment (field-independent basis, Debye-Ang):
   XX=             21.9030   YY=             -7.5068   ZZ=            -14.3962
   XY=              2.0883   XZ=             -9.3002   YZ=             -8.6550
 Octapole moment (field-independent basis, Debye-Ang**2):
  XXX=            -19.3524  YYY=            -44.3155  ZZZ=              0.5943  XYY=            -37.9090
  XXY=            -89.5135  XXZ=             33.6918  XZZ=             17.0165  YZZ=             -6.7690
  YYZ=             14.6120  XYZ=             11.2199
 Hexadecapole moment (field-independent basis, Debye-Ang**3):
 XXXX=          -9046.9727 YYYY=          -3155.5593 ZZZZ=           -495.6871 XXXY=            127.6280
 XXXZ=           -379.2026 YYYX=            167.3793 YYYZ=            -73.9224 ZZZX=            -19.9377
 ZZZY=            -13.6496 XXYY=          -1821.2407 XXZZ=          -1825.8681 YYZZ=           -642.0106
 XXYZ=           -192.1481 YYXZ=            -67.3576 ZZXY=              4.6301
 N-N= 1.957682912697D+03 E-N=-7.063697983699D+03  KE= 1.339333935090D+03
 1\1\GINC-B41\SP\RHF\6-31G(d)\C16H18N6S1\RUPAKHETIC\28-Mar-2018\0\\#HF/
 6-31G* nosymm SCF=Tight\\Mol\\0,1\N,0,-3.01331,-2.51155,-0.41219\N,0,-
 5.22756,-3.08025,0.01776\N,0,-0.97817,3.56035,0.13129\N,0,1.03999,2.52
 808,0.16831\N,0,4.96579,-1.51547,-0.0087\N,0,-0.84043,1.19804,0.0407\C
 ,0,-0.7616,-1.67732,-0.87375\C,0,-2.17855,-1.41595,-0.45381\C,0,-4.200
 08,-2.18855,-0.05691\C,0,-2.74326,-0.23257,-0.11111\C,0,-2.16161,1.109
 84,-0.02969\C,0,-2.95851,2.25384,-0.0187\C,0,-2.28736,3.45662,0.06768\
 C,0,-0.31018,2.40783,0.10702\C,0,2.00032,1.48794,0.11857\C,0,2.04918,0
 .49089,1.08054\C,0,3.01909,-0.49053,1.0434\C,0,4.00146,-0.50964,0.0436
 1\C,0,5.18471,-2.31613,1.1765\C,0,6.11511,-1.31633,-0.86371\C,0,3.9570
 1,0.51458,-0.90628\C,0,2.96534,1.47999,-0.87153\S,0,-4.44477,-0.50304,
 0.26866\H,0,-0.3237,-0.82986,-1.37539\H,0,-0.74791,-2.54516,-1.52064\H
 ,0,-0.14764,-1.89114,-0.00521\H,0,-5.97008,-2.88098,0.65016\H,0,-4.934
 88,-4.03367,0.00875\H,0,1.36351,3.46879,0.16814\H,0,-4.02699,2.21893,-
 0.09266\H,0,-2.83523,4.38364,0.08106\H,0,1.31685,0.47914,1.86562\H,0,3
 .00679,-1.23797,1.81091\H,0,5.96939,-3.03215,0.97745\H,0,4.29634,-2.88
 014,1.43166\H,0,5.47495,-1.72296,2.04398\H,0,6.75956,-2.18123,-0.79487
 \H,0,6.69756,-0.43358,-0.5979\H,0,5.81297,-1.22539,-1.89952\H,0,4.6842
 6,0.56815,-1.69104\H,0,2.9501,2.24274,-1.6304\\Version=EM64L-G09RevA.0
 2\HF=-1340.5779136\RMSD=5.868e-09\Dipole=0.0999041,-0.7298878,0.508665
 3\Quadrupole=16.284365,-5.5811168,-10.7032483,1.5525813,-6.9144571,-6.
 4347459\PG=C01 [X(C16H18N6S1)]\\@


 MY GROUP MEETINGS AREN'T VERY STRUCTURED.
     -- PROF. M. S. GORDON, OCT. 5, 1984
 Job cpu time:  0 days  0 hours  5 minutes 13.3 seconds.
 File lengths (MBytes):  RWF=     83 Int=      0 D2E=      0 Chk=      6 Scr=      1
 Normal termination of Gaussian 09 at Wed Mar 28 15:40:21 2018.
