 Entering Gaussian System, Link 0=/homes/huanglei/prog/g09/g09
 Initial command:
 /homes/huanglei/prog/g09/l1.exe /scratch/1867310.bmgt1.lcrc.anl.gov/1/Gau-20961.inp -scrdir=/scratch/1867310.bmgt1.lcrc.anl.gov/1/
 Entering Link 1 = /homes/huanglei/prog/g09/l1.exe PID=     20963.
  
 Copyright (c) 1988,1990,1992,1993,1995,1998,2003,2009, Gaussian, Inc.
                  All Rights Reserved.
  
 This is part of the Gaussian(R) 09 program.  It is based on
 the Gaussian(R) 03 system (copyright 2003, Gaussian, Inc.),
 the Gaussian(R) 98 system (copyright 1998, Gaussian, Inc.),
 the Gaussian(R) 94 system (copyright 1995, Gaussian, Inc.),
 the Gaussian 92(TM) system (copyright 1992, Gaussian, Inc.),
 the Gaussian 90(TM) system (copyright 1990, Gaussian, Inc.),
 the Gaussian 88(TM) system (copyright 1988, Gaussian, Inc.),
 the Gaussian 86(TM) system (copyright 1986, Carnegie Mellon
 University), and the Gaussian 82(TM) system (copyright 1983,
 Carnegie Mellon University). Gaussian is a federally registered
 trademark of Gaussian, Inc.
  
 This software contains proprietary and confidential information,
 including trade secrets, belonging to Gaussian, Inc.
  
 This software is provided under written license and may be
 used, copied, transmitted, or stored only in accord with that
 written license.
  
 The following legend is applicable only to US Government
 contracts under FAR:
  
                    RESTRICTED RIGHTS LEGEND
  
 Use, reproduction and disclosure by the US Government is
 subject to restrictions as set forth in subparagraphs (a)
 and (c) of the Commercial Computer Software - Restricted
 Rights clause in FAR 52.227-19.
  
 Gaussian, Inc.
 340 Quinnipiac St., Bldg. 40, Wallingford CT 06492
  
  
 ---------------------------------------------------------------
 Warning -- This program may not be used in any manner that
 competes with the business of Gaussian, Inc. or will provide
 assistance to any competitor of Gaussian, Inc.  The licensee
 of this program is prohibited from giving any competitor of
 Gaussian, Inc. access to this program.  By using this program,
 the user acknowledges that Gaussian, Inc. is engaged in the
 business of creating and licensing software in the field of
 computational chemistry and represents and warrants to the
 licensee that it is not a competitor of Gaussian, Inc. and that
 it will not use this program in any manner prohibited above.
 ---------------------------------------------------------------
  

 Cite this work as:
 Gaussian 09, Revision A.02,
 M. J. Frisch, G. W. Trucks, H. B. Schlegel, G. E. Scuseria, 
 M. A. Robb, J. R. Cheeseman, G. Scalmani, V. Barone, B. Mennucci, 
 G. A. Petersson, H. Nakatsuji, M. Caricato, X. Li, H. P. Hratchian, 
 A. F. Izmaylov, J. Bloino, G. Zheng, J. L. Sonnenberg, M. Hada, 
 M. Ehara, K. Toyota, R. Fukuda, J. Hasegawa, M. Ishida, T. Nakajima, 
 Y. Honda, O. Kitao, H. Nakai, T. Vreven, J. A. Montgomery, Jr., 
 J. E. Peralta, F. Ogliaro, M. Bearpark, J. J. Heyd, E. Brothers, 
 K. N. Kudin, V. N. Staroverov, R. Kobayashi, J. Normand, 
 K. Raghavachari, A. Rendell, J. C. Burant, S. S. Iyengar, J. Tomasi, 
 M. Cossi, N. Rega, J. M. Millam, M. Klene, J. E. Knox, J. B. Cross, 
 V. Bakken, C. Adamo, J. Jaramillo, R. Gomperts, R. E. Stratmann, 
 O. Yazyev, A. J. Austin, R. Cammi, C. Pomelli, J. W. Ochterski, 
 R. L. Martin, K. Morokuma, V. G. Zakrzewski, G. A. Voth, 
 P. Salvador, J. J. Dannenberg, S. Dapprich, A. D. Daniels, 
 O. Farkas, J. B. Foresman, J. V. Ortiz, J. Cioslowski, 
 and D. J. Fox, Gaussian, Inc., Wallingford CT, 2009.
 
 ******************************************
 Gaussian 09:  EM64L-G09RevA.02 11-Jun-2009
                28-Mar-2018 
 ******************************************
 %mem=5GB
 %nproc=4
 Will use up to    4 processors via shared memory.
 -------------------------------------------------------
 #HF/6-31G* nosymm SCF=Tight opt=(Z-MATRIX,MaxCycle=200)
 -------------------------------------------------------
 1/6=200,10=7,18=40,38=1/1,3;
 2/12=2,15=1,17=6,18=5,29=3,40=1/2;
 3/5=1,6=6,7=1,11=9,16=1,25=1,30=1,71=1/1,2,3;
 4//1;
 5/5=2,32=2,38=5/2;
 6/7=2,8=2,9=2,10=2,28=1/1;
 7/29=1,30=1/1,2,3,16;
 1/6=200,10=7,18=40/3(2);
 2/15=1,29=3/2;
 99//99;
 2/15=1,29=3/2;
 3/5=1,6=6,7=1,11=9,16=1,25=1,30=1,71=1/1,2,3;
 4/5=5,16=3/1;
 5/5=2,32=2,38=5/2;
 7/30=1/1,2,3,16;
 1/6=200,18=40/3(-5);
 2/15=1,29=3/2;
 6/7=2,8=2,9=2,10=2,19=2,28=1/1;
 99/9=1/99;
 ---------------
 Mol-Water Dimer
 ---------------
 Symbolic Z-matrix:
 Charge =  0 Multiplicity = 1
 N                    -3.01331  -2.51155  -0.41219 
 N99                  -5.22756  -3.08025   0.01776 
 N                    -0.97817   3.56035   0.13129 
 N                     1.03999   2.52808   0.16831 
 N                     4.96579  -1.51547  -0.0087 
 N                    -0.84043   1.19804   0.0407 
 C                    -0.7616   -1.67732  -0.87375 
 C                    -2.17855  -1.41595  -0.45381 
 C                    -4.20008  -2.18855  -0.05691 
 C                    -2.74326  -0.23257  -0.11111 
 C                    -2.16161   1.10984  -0.02969 
 C                    -2.95851   2.25384  -0.0187 
 C                    -2.28736   3.45662   0.06768 
 C                    -0.31018   2.40783   0.10702 
 C                     2.00032   1.48794   0.11857 
 C                     2.04918   0.49089   1.08054 
 C                     3.01909  -0.49053   1.0434 
 C                     4.00146  -0.50964   0.04361 
 C                     5.18471  -2.31613   1.1765 
 C                     6.11511  -1.31633  -0.86371 
 C                     3.95701   0.51458  -0.90628 
 C                     2.96534   1.47999  -0.87153 
 S                    -4.44477  -0.50304   0.26866 
 H                    -0.3237   -0.82986  -1.37539 
 H                    -0.74791  -2.54516  -1.52064 
 H                    -0.14764  -1.89114  -0.00521 
 H                    -5.97008  -2.88098   0.65016 
 H99                  -4.93488  -4.03367   0.00875 
 H                     1.36351   3.46879   0.16814 
 H                    -4.02699   2.21893  -0.09266 
 H                    -2.83523   4.38364   0.08106 
 H                     1.31685   0.47914   1.86562 
 H                     3.00679  -1.23797   1.81091 
 H                     5.96939  -3.03215   0.97745 
 H                     4.29634  -2.88014   1.43166 
 H                     5.47495  -1.72296   2.04398 
 H                     6.75956  -2.18123  -0.79487 
 H                     6.69756  -0.43358  -0.5979 
 H                     5.81297  -1.22539  -1.89952 
 H                     4.68426   0.56815  -1.69104 
 H                     2.9501    2.24274  -1.6304 
 X1                   -5.22756  -3.08025   0.01776 
 X2                   -5.03047  -4.04887  -1.48812 
 X3                   -3.46763  -8.81333  -0.03642 
 O1W                  H99  roh      X2    90.      N99   180.     0
 H1W                  O1W   0.9474   H99   127.2302  X2   phi      0
 H2W                  O1W   0.9474   H1W   105.5395  X3    0.       0
       Variables:
  roh                   2.0093                   
  phi                  85.49725                  
 

 GradGradGradGradGradGradGradGradGradGradGradGradGradGradGradGradGradGrad
 Berny optimization.
 Initialization pass.
                       ----------------------------
                       !    Initial Parameters    !
                       ! (Angstroms and Degrees)  !
 ----------------------                            ----------------------
 !      Name          Value   Derivative information (Atomic Units)     !
 ------------------------------------------------------------------------
 !       roh         2.0093   estimate D2E/DX2                          !
 !       phi        85.4973   estimate D2E/DX2                          !
 ------------------------------------------------------------------------
 Trust Radius=3.00D-01 FncErr=1.00D-07 GrdErr=1.00D-07
 Number of steps in this run= 100 maximum allowed number of steps= 100.
 GradGradGradGradGradGradGradGradGradGradGradGradGradGradGradGradGradGrad

 ---------------------------------------------------------------------------------------------------
                            Z-MATRIX (ANGSTROMS AND DEGREES)
   CD    Cent   Atom    N1       Length/X        N2       Alpha/Y        N3        Beta/Z          J
 ---------------------------------------------------------------------------------------------------
      1      1  N        0  -3.013310         -2.511550         -0.412190
      2      2  N        0  -5.227560         -3.080250          0.017760
      3      3  N        0  -0.978170          3.560350          0.131290
      4      4  N        0   1.039990          2.528080          0.168310
      5      5  N        0   4.965790         -1.515470         -0.008700
      6      6  N        0  -0.840430          1.198040          0.040700
      7      7  C        0  -0.761600         -1.677320         -0.873750
      8      8  C        0  -2.178550         -1.415950         -0.453810
      9      9  C        0  -4.200080         -2.188550         -0.056910
     10     10  C        0  -2.743260         -0.232570         -0.111110
     11     11  C        0  -2.161610          1.109840         -0.029690
     12     12  C        0  -2.958510          2.253840         -0.018700
     13     13  C        0  -2.287360          3.456620          0.067680
     14     14  C        0  -0.310180          2.407830          0.107020
     15     15  C        0   2.000320          1.487940          0.118570
     16     16  C        0   2.049180          0.490890          1.080540
     17     17  C        0   3.019090         -0.490530          1.043400
     18     18  C        0   4.001460         -0.509640          0.043610
     19     19  C        0   5.184710         -2.316130          1.176500
     20     20  C        0   6.115110         -1.316330         -0.863710
     21     21  C        0   3.957010          0.514580         -0.906280
     22     22  C        0   2.965340          1.479990         -0.871530
     23     23  S        0  -4.444770         -0.503040          0.268660
     24     24  H        0  -0.323700         -0.829860         -1.375390
     25     25  H        0  -0.747910         -2.545160         -1.520640
     26     26  H        0  -0.147640         -1.891140         -0.005210
     27     27  H        0  -5.970080         -2.880980          0.650160
     28     28  H        0  -4.934880         -4.033670          0.008750
     29     29  H        0   1.363510          3.468790          0.168140
     30     30  H        0  -4.026990          2.218930         -0.092660
     31     31  H        0  -2.835230          4.383640          0.081060
     32     32  H        0   1.316850          0.479140          1.865620
     33     33  H        0   3.006790         -1.237970          1.810910
     34     34  H        0   5.969390         -3.032150          0.977450
     35     35  H        0   4.296340         -2.880140          1.431660
     36     36  H        0   5.474950         -1.722960          2.043980
     37     37  H        0   6.759560         -2.181230         -0.794870
     38     38  H        0   6.697560         -0.433580         -0.597900
     39     39  H        0   5.812970         -1.225390         -1.899520
     40     40  H        0   4.684260          0.568150         -1.691040
     41     41  H        0   2.950100          2.242740         -1.630400
     42         X        0  -5.227560         -3.080250          0.017760
     43         X        0  -5.030470         -4.048870         -1.488120
     44         X        0  -3.467630         -8.813330         -0.036420
     45     42  O       28   2.009300(    44)     43   90.000(    89)      2  180.000(   133)      0
     46     43  H       45   0.947400(    45)     28  127.230(    90)     43   85.497(   134)      0
     47     44  H       45   0.947400(    46)     46  105.540(    91)     44    0.000(   135)      0
 ---------------------------------------------------------------------------------------------------
                         Z-Matrix orientation:                         
 ---------------------------------------------------------------------
 Center     Atomic      Atomic             Coordinates (Angstroms)
 Number     Number       Type             X           Y           Z
 ---------------------------------------------------------------------
      1          7           0       -3.013310   -2.511550   -0.412190
      2          7           0       -5.227560   -3.080250    0.017760
      3          7           0       -0.978170    3.560350    0.131290
      4          7           0        1.039990    2.528080    0.168310
      5          7           0        4.965790   -1.515470   -0.008700
      6          7           0       -0.840430    1.198040    0.040700
      7          6           0       -0.761600   -1.677320   -0.873750
      8          6           0       -2.178550   -1.415950   -0.453810
      9          6           0       -4.200080   -2.188550   -0.056910
     10          6           0       -2.743260   -0.232570   -0.111110
     11          6           0       -2.161610    1.109840   -0.029690
     12          6           0       -2.958510    2.253840   -0.018700
     13          6           0       -2.287360    3.456620    0.067680
     14          6           0       -0.310180    2.407830    0.107020
     15          6           0        2.000320    1.487940    0.118570
     16          6           0        2.049180    0.490890    1.080540
     17          6           0        3.019090   -0.490530    1.043400
     18          6           0        4.001460   -0.509640    0.043610
     19          6           0        5.184710   -2.316130    1.176500
     20          6           0        6.115110   -1.316330   -0.863710
     21          6           0        3.957010    0.514580   -0.906280
     22          6           0        2.965340    1.479990   -0.871530
     23         16           0       -4.444770   -0.503040    0.268660
     24          1           0       -0.323700   -0.829860   -1.375390
     25          1           0       -0.747910   -2.545160   -1.520640
     26          1           0       -0.147640   -1.891140   -0.005210
     27          1           0       -5.970080   -2.880980    0.650160
     28          1           0       -4.934880   -4.033670    0.008750
     29          1           0        1.363510    3.468790    0.168140
     30          1           0       -4.026990    2.218930   -0.092660
     31          1           0       -2.835230    4.383640    0.081060
     32          1           0        1.316850    0.479140    1.865620
     33          1           0        3.006790   -1.237970    1.810910
     34          1           0        5.969390   -3.032150    0.977450
     35          1           0        4.296340   -2.880140    1.431660
     36          1           0        5.474950   -1.722960    2.043980
     37          1           0        6.759560   -2.181230   -0.794870
     38          1           0        6.697560   -0.433580   -0.597900
     39          1           0        5.812970   -1.225390   -1.899520
     40          1           0        4.684260    0.568150   -1.691040
     41          1           0        2.950100    2.242740   -1.630400
     42         -1           0       -5.227560   -3.080250    0.017760
     43         -1           0       -5.030470   -4.048870   -1.488120
     44         -1           0       -3.467630   -8.813330   -0.036420
     45          8           0       -4.345249   -5.954423   -0.009399
     46          1           0       -3.463523   -6.282309   -0.121721
     47          1           0       -4.890565   -6.722408    0.092564
 ---------------------------------------------------------------------
                    Distance matrix (angstroms):
                    1          2          3          4          5
     1  N    0.000000
     2  N    2.326194   0.000000
     3  N    6.426907   7.884654   0.000000
     4  N    6.493388   8.411790   2.267140   0.000000
     5  N    8.051150  10.312789   7.817558   5.638576   0.000000
     6  N    4.322913   6.127903   2.368056   2.306788   6.409194
     7  C    2.445235   4.765270   5.337621   4.692228   5.794610
     8  C    1.378004   3.505529   5.152360   5.128490   7.158884
     9  C    1.280225   1.362505   6.592873   7.053769   9.190676
    10  C    2.314590   3.781221   4.190530   4.691721   7.815739
    11  C    3.739808   5.192221   2.726068   3.507257   7.595559
    12  C    4.781922   5.796761   2.377228   4.012254   8.775097
    13  C    6.031279   7.167841   1.314833   3.455947   8.794072
    14  C    5.637091   7.369370   1.332330   1.356899   6.575829
    15  C    6.435380   8.551068   3.628560   1.416545   4.222639
    16  C    6.072207   8.175175   4.414466   2.449647   3.703854
    17  C    6.526340   8.704357   5.763650   3.714112   2.438659
    18  C    7.309063   9.580371   6.431891   4.244243   1.394404
    19  C    8.352823  10.504376   8.579427   6.454574   1.446956
    20  C    9.217401  11.512800   8.665256   6.449914   1.446249
    21  C    7.614916   9.906209   5.891457   3.703773   2.438112
    22  C    7.203308   9.418611   4.569991   2.426259   3.703924
    23  S    2.558661   2.705129   5.342970   6.267404   9.468927
    24  H    3.315092   5.572519   4.687468   3.939343   5.506052
    25  H    2.522266   4.766577   6.329229   5.637987   5.999383
    26  H    2.960170   5.217288   5.516082   4.579310   5.127212
    27  H    3.163472   0.995477   8.165729   8.867423  11.040469
    28  H    2.487262   0.997373   8.563861   8.875871  10.215914
    29  H    7.433559   9.292725   2.343759   0.994787   6.152279
    30  H    4.848411   5.434599   3.338393   5.083106   9.737704
    31  H    6.915103   7.838170   2.031994   4.297446   9.780770
    32  H    5.734364   7.675490   4.215314   2.675008   4.561393
    33  H    6.542613   8.626349   6.459482   4.555170   2.688060
    34  H    9.104451  11.238105   9.614865   7.474614   2.068822
    35  H    7.547624   9.630360   8.425635   6.438067   2.094069
    36  H    8.871595  10.976863   8.556548   6.423266   2.125039
    37  H    9.785936  12.048222   9.679668   7.471198   2.068553
    38  H    9.932444  12.230797   8.683319   6.431688   2.125246
    39  H    9.042653  11.358247   8.552607   6.414499   2.092143
    40  H    8.388837  10.699299   6.658623   4.536432   2.692768
    41  H    7.723313   9.895695   4.502328   2.639185   4.562572
    42  X    2.326194   0.000000   7.884654   8.411790  10.312789
    43  X    2.754980   1.801317   8.771765   9.102226  10.417870
    44  X    6.329300   5.997374  12.622737  12.206070  11.152672
    45  O    3.713445   3.006673  10.093955  10.049141  10.315025
    46  H    3.808634   3.658479  10.154749   9.898924   9.684464
    47  H    4.637907   3.658480  11.001974  10.988573  11.147654
                    6          7          8          9         10
     6  N    0.000000
     7  C    3.018299   0.000000
     8  C    2.977927   1.500804   0.000000
     9  C    4.771349   3.570956   2.200233   0.000000
    10  C    2.385467   2.568248   1.355260   2.439492   0.000000
    11  C    1.325990   3.231211   2.561207   3.877561   1.465268
    12  C    2.367384   4.583835   3.776906   4.612785   2.497420
    13  C    2.682446   5.437975   4.901605   5.961708   3.721550
    14  C    1.322556   4.225416   4.292625   6.023695   3.597106
    15  C    2.856565   4.316454   5.120854   7.210571   5.051184
    16  C    3.151377   4.052267   4.885076   6.893942   4.991083
    17  C    4.330424   4.401994   5.487577   7.497358   5.882526
    18  C    5.134207   4.989165   6.265888   8.372222   6.752181
    19  C    7.066947   6.322199   7.595119   9.466354   8.297703
    20  C    7.451144   6.886186   8.304381  10.383392   8.956096
    21  C    4.937542   5.202957   6.448005   8.635187   6.788531
    22  C    3.923716   4.884536   5.917817   8.091047   6.008262
    23  S    3.992105   4.031101   2.547768   1.734016   1.764232
    24  H    2.526796   1.077770   2.152505   4.314018   2.794536
    25  H    4.056832   1.082497   2.111865   3.766584   3.363966
    26  H    3.166244   1.084909   2.133458   4.063668   3.082095
    27  H    6.582033   5.558720   4.211978   2.027882   4.243345
    28  H    6.643518   4.873136   3.829331   1.987136   4.389297
    29  H    3.167001   5.664281   6.065781   7.937864   5.535667
    30  H    3.348756   5.143310   4.093838   4.411022   2.767337
    31  H    3.758843   6.476638   5.861106   6.713831   4.621124
    32  H    2.915649   4.058870   4.603145   6.422555   4.571486
    33  H    4.885580   4.647708   5.661129   7.505420   6.145573
    34  H    8.071286   7.111170   8.429089  10.256690   9.215904
    35  H    6.704680   5.687218   6.900946   8.653513   7.677613
    36  H    7.240815   6.885477   8.056629   9.911444   8.625813
    37  H    8.359276   7.538435   8.977293  10.984459   9.724628
    38  H    7.738946   7.567169   8.931469  11.051296   9.455498
    39  H    7.342016   6.669439   8.123471  10.226635   8.797339
    40  H    5.823906   5.947057   7.250210   9.444643   7.635796
    41  H    4.272247   5.451248   6.408855   8.557878   6.391381
    42  X    6.127903   4.765270   3.505529   1.362505   3.781221
    43  X    6.886493   4.921885   4.016903   2.489719   4.657428
    44  X   10.350636   7.677653   7.520450   6.665179   8.611605
    45  O    7.965174   5.646526   5.048745   3.768969   5.942753
    46  H    7.928595   5.391833   5.044095   4.159998   6.092474
    47  H    8.896054   6.590525   5.984316   4.588570   6.838889
                   11         12         13         14         15
    11  C    0.000000
    12  C    1.394240   0.000000
    13  C    2.352163   1.380067   0.000000
    14  C    2.265229   2.655781   2.238470   0.000000
    15  C    4.181698   5.019506   4.718314   2.486914   0.000000
    16  C    4.398461   5.421557   5.350422   3.192018   1.386320
    17  C    5.527419   6.662682   6.685090   4.512354   2.409885
    18  C    6.372717   7.488784   7.435123   5.206332   2.828517
    19  C    8.195156   9.414094   9.507153   7.324848   5.072524
    20  C    8.665217   9.787274   9.708246   7.489729   5.075461
    21  C    6.209690   7.185906   6.971109   4.777037   2.413790
    22  C    5.208774   6.034746   5.690346   3.542242   1.382615
    23  S    2.811266   3.145144   4.513726   5.059064   6.747275
    24  H    2.991865   4.276919   4.930753   3.560949   3.606270
    25  H    4.192911   5.492993   6.396408   5.231921   5.148366
    26  H    3.614216   5.008196   5.760404   4.303505   4.005900
    27  H    5.558173   5.990267   7.353019   7.765371   9.104797
    28  H    5.843646   6.590870   7.944638   7.930349   8.865508
    29  H    4.246205   4.493425   3.652272   1.982577   2.081286
    30  H    2.171103   1.071605   2.141004   3.726960   6.075149
    31  H    3.344218   2.135696   1.076897   3.206303   5.636402
    32  H    4.011193   4.997892   5.008823   3.075670   2.130022
    33  H    5.967611   7.150176   7.287390   5.215112   3.362675
    34  H    9.180609  10.423119  10.540671   8.353684   6.076381
    35  H    7.730498   9.005229   9.239052   7.137039   5.106470
    36  H    8.404874   9.549494   9.538725   7.367698   5.107850
    37  H    9.539597  10.710423  10.694677   8.476680   6.078449
    38  H    9.010544  10.039790   9.813534   7.594665   5.125391
    39  H    8.517247   9.621922   9.560672   7.397260   5.096189
    40  H    7.065370   8.003137   7.748538   5.617995   3.365150
    41  H    5.474972   6.124490   5.638082   3.698014   2.128544
    42  X    5.192221   5.796761   7.167841   7.369370   8.551068
    43  X    6.080268   6.795319   8.141102   8.155647   9.092289
    44  X   10.008748  11.078888  12.327025  11.657808  11.663561
    45  O    7.394086   8.324585   9.633721   9.285613   9.781175
    46  H    7.506485   8.551696   9.811523   9.247400   9.502005
    47  H    8.294953   9.182496  10.506660  10.214763  10.718898
                   16         17         18         19         20
    16  C    0.000000
    17  C    1.380322   0.000000
    18  C    2.426454   1.401783   0.000000
    19  C    4.209527   2.835567   2.438632   0.000000
    20  C    4.855712   3.728854   2.437518   2.455138   0.000000
    21  C    2.754602   2.385622   1.397603   3.722652   2.830449
    22  C    2.372392   2.748235   2.422737   4.850831   4.211949
    23  S    6.619549   7.503971   8.449230   9.840648  10.651515
    24  H    3.661493   4.140040   4.563235   6.250098   6.477403
    25  H    4.879288   4.998609   5.398772   6.520966   7.003044
    26  H    3.417446   3.617937   4.373323   5.478231   6.347398
    27  H    8.709952   9.309891  10.267559  11.181477  12.279729
    28  H    8.390320   8.768693   9.606153  10.330522  11.412598
    29  H    3.189123   4.379868   4.775164   7.005973   6.822008
    30  H    6.425135   7.634072   8.480547  10.345673  10.768230
    31  H    6.325340   7.678326   8.407492  10.507442  10.653208
    32  H    1.073683   2.124600   3.391834   4.821697   5.804847
    33  H    2.106992   1.071396   2.154804   2.511621   4.101388
    34  H    5.271668   3.894670   3.332846   1.080754   2.520941
    35  H    4.066553   2.737216   2.762772   1.082781   3.319962
    36  H    4.191092   2.924259   2.764923   1.090235   3.004965
    37  H    5.731062   4.497646   3.332323   2.526787   1.080790
    38  H    5.027847   4.028430   2.772413   2.996866   1.090482
    39  H    5.098283   4.123901   2.751294   3.323601   1.082802
    40  H    3.825084   3.372055   2.153336   4.097842   2.506606
    41  H    3.351094   3.824229   3.388696   5.801333   4.824115
    42  X    8.175175   8.704357   9.580371  10.504376  11.512800
    43  X    8.793684   9.157827   9.820800  10.698247  11.492633
    44  X   10.874341  10.607193  11.168929  10.887964  12.195012
    45  O    9.144329   9.230168   9.965742  10.269550  11.474357
    46  H    8.815415   8.770774   9.438062   9.602494  10.814883
    47  H   10.058222  10.114496  10.847534  11.049949  12.298984
                   21         22         23         24         25
    21  C    0.000000
    22  C    1.384425   0.000000
    23  S    8.544351   7.755138   0.000000
    24  H    4.511326   4.050564   4.448925   0.000000
    25  H    5.645859   5.514653   4.586788   1.772937   0.000000
    26  H    4.842269   4.669654   4.524064   1.742041   1.756301
    27  H   10.606576  10.058595   2.850739   6.339681   5.665351
    28  H   10.029435   9.674131   3.573949   5.783012   4.699512
    29  H    4.075289   2.757190   7.037162   4.869040   6.593760
    30  H    8.204331   7.074274   2.777447   4.965367   5.957184
    31  H    7.879022   6.556312   5.148345   5.967379   7.411519
    32  H    3.828202   3.348315   6.058979   3.861221   4.987623
    33  H    3.370085   3.818967   7.644894   4.627227   5.187075
    34  H    4.491927   5.727342  10.740275   7.070284   7.183295
    35  H    4.135847   5.107541   9.132917   5.781691   5.854293
    36  H    4.001845   5.005720  10.150902   6.790733   7.218484
    37  H    3.890256   5.273188  11.379122   7.234347   7.551244
    38  H    2.916285   4.203105  11.176192   7.075282   7.793923
    39  H    2.731045   4.060153  10.509235   6.171700   6.703021
    40  H    1.071266   2.111335   9.398248   5.209005   6.263402
    41  H    2.127147   1.076059   8.113559   4.497073   6.050728
    42  X    9.906209   9.418611   2.705129   5.572519   4.766577
    43  X   10.096455   9.740711   4.000279   5.703369   4.539000
    44  X   11.953738  12.166879   8.373100   8.684062   6.992120
    45  O   10.563139  10.462240   5.459377   6.655819   5.181483
    46  H   10.093441  10.106719   5.874964   6.415557   4.826781
    47  H   11.473938  11.398423   6.237810   7.598241   6.100280
                   26         27         28         29         30
    26  H    0.000000
    27  H    5.942230   0.000000
    28  H    5.244835   1.676824   0.000000
    29  H    5.571577   9.712542   9.797042   0.000000
    30  H    5.652405   5.507855   6.318984   5.539644   0.000000
    31  H    6.826672   7.932582   8.675533   4.298133   2.477184
    32  H    3.356034   8.115855   7.930797   3.438259   5.951332
    33  H    3.698020   9.199512   8.610101   5.249062   8.065221
    34  H    6.299649  11.944912  10.992931   8.008204  11.342248
    35  H    4.774063  10.296122   9.411202   7.106820   9.879367
    36  H    5.986734  11.587599  10.855694   6.883094  10.506693
    37  H    6.958242  12.830491  11.867488   7.871942  11.670654
    38  H    7.023712  12.962119  12.191896   6.653375  11.059252
    39  H    6.289714  12.168899  11.271389   6.790305  10.580780
    40  H    5.677798  11.440834  10.797865   4.785148   9.009205
    41  H    5.415367  10.536749  10.210438   2.693550   7.144578
    42  X    5.217288   0.995477   0.997373   9.292725   5.434599
    43  X    5.540474   2.611336   1.499996  10.007067   6.499200
    44  X    7.677241   6.475062   5.000001  13.199706  11.046574
    45  O    5.842106   3.538523   2.009300  11.019001   8.179971
    46  H    5.503728   4.295075   2.690408  10.884310   8.519942
    47  H    6.770971   4.028999   2.690409  11.957411   8.984853
                   31         32         33         34         35
    31  H    0.000000
    32  H    5.972398   0.000000
    33  H    8.289999   2.409846   0.000000
    34  H   11.546376   5.896112   3.562406   0.000000
    35  H   10.268686   4.511147   2.122143   1.740261   0.000000
    36  H   10.497748   4.708593   2.526134   1.759527   1.761568
    37  H   11.658678   6.616560   4.665095   2.118856   3.393135
    38  H   10.702368   5.987823   4.480088   3.124824   3.983796
    39  H   10.496441   6.107110   4.652107   3.400854   4.016855
    40  H    8.616324   4.898694   4.282479   4.662034   4.668237
    41  H    6.401765   4.242634   4.895015   6.613733   6.118208
    42  X    7.838170   7.675490   8.626349  11.238105   9.630360
    43  X    8.853735   8.487574   9.131391  11.318554   9.842786
    44  X   13.212636  10.623512  10.134931  11.113385   9.881155
    45  O   10.448152   8.773015   8.922496  10.765934   9.284661
    46  H   10.686363   8.515790   8.428841  10.037507   8.614129
    47  H   11.294637   9.671506   9.767292  11.503897  10.047658
                   36         37         38         39         40
    36  H    0.000000
    37  H    3.149493   0.000000
    38  H    3.183835   1.759807   0.000000
    39  H    3.989113   1.740665   1.761726   0.000000
    40  H    4.452499   3.559365   2.500359   2.129375   0.000000
    41  H    5.966801   5.897593   4.719343   4.505150   2.411481
    42  X   10.976863  12.048222  12.230797  11.358247  10.699299
    43  X   11.324727  11.957152  12.304857  11.212559  10.757975
    44  X   11.600481  12.212920  13.185847  12.131674  12.538072
    45  O   10.888432  11.754605  12.360003  11.363350  11.265163
    46  H   10.265194  11.035552  11.733796  10.713838  10.760015
    47  H   11.672463  12.535360  13.202679  12.196363  12.165967
                   41         42         43         44         45
    41  H    0.000000
    42  X    9.895695   0.000000
    43  X   10.163370   1.801317   0.000000
    44  X   12.882729   5.997374   5.220151   0.000000
    45  O   11.092486   3.006673   2.507444   2.990701   0.000000
    46  H   10.774374   3.658479   3.051331   2.532461   0.947400
    47  H   12.034056   3.658480   3.109009   2.532457   0.947400
                   46         47
    46  H    0.000000
    47  H    1.508660   0.000000
 Symmetry turned off by external request.
 Stoichiometry    C16H20N6OS
 Framework group  C1[X(C16H20N6OS)]
 Deg. of freedom   126
 Full point group                 C1      NOp   1
 Rotational constants (GHZ):      0.2713740      0.1139851      0.0833984
 Standard basis: 6-31G(d) (6D, 7F)
 Integral buffers will be    131072 words long.
 Raffenetti 1 integral format.
 Two-electron integral symmetry is turned off.
   404 basis functions,   776 primitive gaussians,   404 cartesian basis functions
    91 alpha electrons       91 beta electrons
       nuclear repulsion energy      2097.6272550851 Hartrees.
 NAtoms=   44 NActive=   44 NUniq=   44 SFac= 7.50D-01 NAtFMM=   80 NAOKFM=F Big=F
 One-electron integrals computed using PRISM.
 NBasis=   404 RedAO= T  NBF=   404
 NBsUse=   404 1.00D-06 NBFU=   404
 Harris functional with IExCor=  205 diagonalized for initial guess.
 ExpMin= 1.17D-01 ExpMax= 2.19D+04 ExpMxC= 3.30D+03 IAcc=1 IRadAn=         1 AccDes= 0.00D+00
 HarFok:  IExCor=  205 AccDes= 0.00D+00 IRadAn=         1 IDoV= 1
 ScaDFX=  1.000000  1.000000  1.000000  1.000000
 FoFCou: FMM=F IPFlag=           0 FMFlag=      100000 FMFlg1=           0
         NFxFlg=           0 DoJE=T BraDBF=F KetDBF=T FulRan=T
         Omega=  0.000000  0.000000  1.000000  0.000000  0.000000 ICntrl=     500 IOpCl=  0
         NMat0=    1 NMatS0=    1 NMatT0=    0 NMatD0=    1 NMtDS0=    0 NMtDT0=    0
         I1Cent=           4 NGrid=           0.
 Symmetry not used in FoFCou.
 Requested convergence on RMS density matrix=1.00D-08 within 128 cycles.
 Requested convergence on MAX density matrix=1.00D-06.
 Requested convergence on             energy=1.00D-06.
 No special actions if energy rises.
 Integral accuracy reduced to 1.0D-05 until final iterations.
 Initial convergence to 1.0D-05 achieved.  Increase integral accuracy.
 SCF Done:  E(RHF) =  -1416.59584778     A.U. after   16 cycles
             Convg  =    0.5533D-08             -V/T =  2.0010

 **********************************************************************

            Population analysis using the SCF density.

 **********************************************************************

 Alpha  occ. eigenvalues --  -91.96095 -20.58152 -15.56908 -15.56713 -15.56656
 Alpha  occ. eigenvalues --  -15.53873 -15.53706 -15.53436 -11.33760 -11.33472
 Alpha  occ. eigenvalues --  -11.29583 -11.27674 -11.27025 -11.26824 -11.25125
 Alpha  occ. eigenvalues --  -11.25022 -11.25012 -11.24047 -11.22447 -11.22214
 Alpha  occ. eigenvalues --  -11.21503 -11.21476 -11.20979 -11.19861  -8.97247
 Alpha  occ. eigenvalues --   -6.65517  -6.65407  -6.65223  -1.36942  -1.32610
 Alpha  occ. eigenvalues --   -1.29702  -1.25288  -1.22504  -1.19792  -1.18406
 Alpha  occ. eigenvalues --   -1.12593  -1.07155  -1.02960  -1.01566  -1.01174
 Alpha  occ. eigenvalues --   -0.99209  -0.96753  -0.92137  -0.89678  -0.87095
 Alpha  occ. eigenvalues --   -0.85271  -0.82391  -0.79060  -0.77874  -0.75589
 Alpha  occ. eigenvalues --   -0.73634  -0.72343  -0.71670  -0.69189  -0.67777
 Alpha  occ. eigenvalues --   -0.66253  -0.65005  -0.64546  -0.63620  -0.62744
 Alpha  occ. eigenvalues --   -0.61666  -0.59840  -0.59562  -0.58804  -0.58329
 Alpha  occ. eigenvalues --   -0.58088  -0.57043  -0.56822  -0.55693  -0.55282
 Alpha  occ. eigenvalues --   -0.54547  -0.53872  -0.52817  -0.52552  -0.52197
 Alpha  occ. eigenvalues --   -0.52191  -0.50229  -0.48292  -0.47515  -0.46266
 Alpha  occ. eigenvalues --   -0.45845  -0.43799  -0.41132  -0.40907  -0.39858
 Alpha  occ. eigenvalues --   -0.38332  -0.36958  -0.32845  -0.32131  -0.28173
 Alpha  occ. eigenvalues --   -0.26525
 Alpha virt. eigenvalues --    0.10371   0.14975   0.15323   0.16992   0.17632
 Alpha virt. eigenvalues --    0.19471   0.20550   0.23294   0.25487   0.26135
 Alpha virt. eigenvalues --    0.26710   0.27086   0.27734   0.27956   0.28073
 Alpha virt. eigenvalues --    0.29045   0.29382   0.30220   0.31588   0.32559
 Alpha virt. eigenvalues --    0.33465   0.33649   0.33855   0.35018   0.35161
 Alpha virt. eigenvalues --    0.35746   0.36202   0.36578   0.38731   0.39326
 Alpha virt. eigenvalues --    0.40618   0.40928   0.42207   0.43427   0.43803
 Alpha virt. eigenvalues --    0.44997   0.46152   0.47025   0.48659   0.50148
 Alpha virt. eigenvalues --    0.52229   0.52783   0.53723   0.53852   0.55125
 Alpha virt. eigenvalues --    0.56661   0.58331   0.58465   0.60212   0.60920
 Alpha virt. eigenvalues --    0.62398   0.64241   0.68235   0.69303   0.69408
 Alpha virt. eigenvalues --    0.70530   0.71215   0.73308   0.74439   0.74896
 Alpha virt. eigenvalues --    0.75080   0.76376   0.77401   0.77905   0.78899
 Alpha virt. eigenvalues --    0.79306   0.80108   0.80424   0.80745   0.81964
 Alpha virt. eigenvalues --    0.82919   0.83523   0.83748   0.84451   0.84898
 Alpha virt. eigenvalues --    0.85837   0.85976   0.86943   0.87713   0.89938
 Alpha virt. eigenvalues --    0.90278   0.91694   0.92272   0.93465   0.94373
 Alpha virt. eigenvalues --    0.94762   0.95606   0.96310   0.97011   0.97712
 Alpha virt. eigenvalues --    0.98414   0.98819   0.99390   1.00543   1.01341
 Alpha virt. eigenvalues --    1.02260   1.04317   1.04697   1.05982   1.06584
 Alpha virt. eigenvalues --    1.07469   1.07965   1.08441   1.10118   1.11057
 Alpha virt. eigenvalues --    1.11644   1.12417   1.12741   1.12949   1.13511
 Alpha virt. eigenvalues --    1.13714   1.14140   1.14713   1.14913   1.15339
 Alpha virt. eigenvalues --    1.15782   1.16994   1.17394   1.17785   1.18074
 Alpha virt. eigenvalues --    1.18970   1.19988   1.20553   1.21255   1.21632
 Alpha virt. eigenvalues --    1.22654   1.22846   1.23088   1.23959   1.25038
 Alpha virt. eigenvalues --    1.25381   1.26048   1.26214   1.27718   1.28487
 Alpha virt. eigenvalues --    1.28922   1.29495   1.30211   1.31894   1.32273
 Alpha virt. eigenvalues --    1.32887   1.33833   1.34641   1.35687   1.36678
 Alpha virt. eigenvalues --    1.37889   1.39459   1.40859   1.42413   1.43921
 Alpha virt. eigenvalues --    1.44583   1.45585   1.46901   1.48241   1.48511
 Alpha virt. eigenvalues --    1.49911   1.52062   1.52796   1.54474   1.56155
 Alpha virt. eigenvalues --    1.57656   1.61768   1.62415   1.63981   1.64169
 Alpha virt. eigenvalues --    1.66226   1.67033   1.67911   1.68249   1.71295
 Alpha virt. eigenvalues --    1.74576   1.75557   1.75850   1.76606   1.77384
 Alpha virt. eigenvalues --    1.78007   1.78902   1.79995   1.80681   1.81295
 Alpha virt. eigenvalues --    1.82816   1.85275   1.85847   1.87127   1.89889
 Alpha virt. eigenvalues --    1.90379   1.91417   1.94895   2.00689   2.01047
 Alpha virt. eigenvalues --    2.02987   2.03896   2.04586   2.08951   2.10822
 Alpha virt. eigenvalues --    2.11210   2.11931   2.13311   2.14358   2.15344
 Alpha virt. eigenvalues --    2.15582   2.18172   2.19351   2.19825   2.23337
 Alpha virt. eigenvalues --    2.23423   2.23875   2.24692   2.25347   2.27210
 Alpha virt. eigenvalues --    2.27455   2.28687   2.30301   2.31274   2.33477
 Alpha virt. eigenvalues --    2.35627   2.36576   2.39143   2.39401   2.40707
 Alpha virt. eigenvalues --    2.42954   2.43554   2.46527   2.47627   2.48641
 Alpha virt. eigenvalues --    2.49099   2.50529   2.51724   2.53271   2.53601
 Alpha virt. eigenvalues --    2.55089   2.55794   2.58152   2.59133   2.59801
 Alpha virt. eigenvalues --    2.60213   2.61039   2.61774   2.62577   2.63796
 Alpha virt. eigenvalues --    2.65182   2.65692   2.66652   2.67760   2.69738
 Alpha virt. eigenvalues --    2.71300   2.72394   2.74521   2.76659   2.78811
 Alpha virt. eigenvalues --    2.79668   2.81359   2.83664   2.85096   2.87065
 Alpha virt. eigenvalues --    2.87854   2.88779   2.93464   2.94052   2.94950
 Alpha virt. eigenvalues --    2.96075   2.96886   2.97048   2.98445   2.99775
 Alpha virt. eigenvalues --    3.01824   3.02203   3.02870   3.05848   3.07606
 Alpha virt. eigenvalues --    3.09596   3.12421   3.14264   3.16234   3.16479
 Alpha virt. eigenvalues --    3.22081   3.24113   3.26274   3.28781   3.29922
 Alpha virt. eigenvalues --    3.35811   3.41626   3.41958   3.53527   3.60230
 Alpha virt. eigenvalues --    3.61210   3.73381   3.86870   3.88237   4.07739
 Alpha virt. eigenvalues --    4.38138   4.40699   4.48141   4.51222   4.53111
 Alpha virt. eigenvalues --    4.54418   4.56054   4.57123   4.58609   4.59478
 Alpha virt. eigenvalues --    4.65911   4.68623   4.70275   4.72696   4.77030
 Alpha virt. eigenvalues --    4.78300   4.80784   4.81722   4.83859   4.92988
 Alpha virt. eigenvalues --    4.95481   5.09396   5.22656
          Condensed to atoms (all electrons):
              1          2          3          4          5          6
     1  N    6.920881  -0.076494   0.000000   0.000000   0.000000   0.000001
     2  N   -0.076494   7.134781   0.000000   0.000000   0.000000   0.000000
     3  N    0.000000   0.000000   6.950219  -0.109764   0.000000  -0.102972
     4  N    0.000000   0.000000  -0.109764   7.383092   0.000000  -0.103121
     5  N    0.000000   0.000000   0.000000   0.000000   7.246866   0.000000
     6  N    0.000001   0.000000  -0.102972  -0.103121   0.000000   7.062969
     7  C   -0.063790  -0.000058  -0.000003   0.000024   0.000000  -0.012483
     8  C    0.432866   0.003642   0.000021  -0.000006   0.000000  -0.002069
     9  C    0.537271   0.320199   0.000000   0.000000   0.000000  -0.000020
    10  C   -0.089049   0.002514  -0.000086  -0.000133   0.000000  -0.085564
    11  C    0.004794  -0.000032  -0.026469   0.002061   0.000000   0.504609
    12  C   -0.000117   0.000000  -0.052303   0.000452   0.000000  -0.072464
    13  C    0.000001   0.000000   0.486898   0.002019   0.000000  -0.013741
    14  C   -0.000002   0.000000   0.515788   0.318123   0.000000   0.499131
    15  C    0.000000   0.000000   0.002656   0.197941   0.000135   0.002047
    16  C    0.000000   0.000000  -0.000005  -0.049532   0.003556  -0.002715
    17  C    0.000000   0.000000  -0.000001   0.004715  -0.060223  -0.000304
    18  C    0.000000   0.000000   0.000000   0.000192   0.289483   0.000020
    19  C    0.000000   0.000000   0.000000   0.000000   0.266539   0.000000
    20  C    0.000000   0.000000   0.000000   0.000000   0.267514   0.000000
    21  C    0.000000   0.000000   0.000000   0.004349  -0.061037  -0.000039
    22  C    0.000000   0.000000  -0.000132  -0.058833   0.003705  -0.000243
    23  S   -0.080906  -0.068895  -0.000003   0.000002   0.000000   0.002288
    24  H    0.002887   0.000001   0.000012  -0.000164   0.000000   0.002834
    25  H   -0.000592  -0.000016   0.000000  -0.000001   0.000000   0.000560
    26  H    0.000574   0.000000   0.000000   0.000002  -0.000003   0.000009
    27  H    0.002522   0.330927   0.000000   0.000000   0.000000   0.000000
    28  H    0.003524   0.293544   0.000000   0.000000   0.000000   0.000000
    29  H    0.000000   0.000000   0.006837   0.326226   0.000000   0.003821
    30  H   -0.000005   0.000000   0.002718   0.000015   0.000000   0.002523
    31  H    0.000000   0.000000  -0.043048  -0.000051   0.000000  -0.000573
    32  H    0.000000   0.000000  -0.000015  -0.003418  -0.000069   0.001847
    33  H    0.000000   0.000000   0.000000  -0.000104  -0.004006  -0.000007
    34  H    0.000000   0.000000   0.000000   0.000000  -0.036882   0.000000
    35  H    0.000000   0.000000   0.000000   0.000000  -0.044705   0.000000
    36  H    0.000000   0.000000   0.000000   0.000000  -0.057681   0.000000
    37  H    0.000000   0.000000   0.000000   0.000000  -0.036970   0.000000
    38  H    0.000000   0.000000   0.000000   0.000000  -0.058083   0.000000
    39  H    0.000000   0.000000   0.000000   0.000000  -0.044620   0.000000
    40  H    0.000000   0.000000   0.000000  -0.000114  -0.004179   0.000000
    41  H    0.000000   0.000000  -0.000025   0.000165  -0.000074  -0.000027
    42  O    0.000080  -0.010005   0.000000   0.000000   0.000000   0.000000
    43  H    0.000289   0.000460   0.000000   0.000000   0.000000   0.000000
    44  H    0.000006   0.000502   0.000000   0.000000   0.000000   0.000000
              7          8          9         10         11         12
     1  N   -0.063790   0.432866   0.537271  -0.089049   0.004794  -0.000117
     2  N   -0.000058   0.003642   0.320199   0.002514  -0.000032   0.000000
     3  N   -0.000003   0.000021   0.000000  -0.000086  -0.026469  -0.052303
     4  N    0.000024  -0.000006   0.000000  -0.000133   0.002061   0.000452
     5  N    0.000000   0.000000   0.000000   0.000000   0.000000   0.000000
     6  N   -0.012483  -0.002069  -0.000020  -0.085564   0.504609  -0.072464
     7  C    5.098898   0.357024   0.006454  -0.057628   0.000254   0.000104
     8  C    0.357024   4.562597  -0.087141   0.591022  -0.009956   0.002955
     9  C    0.006454  -0.087141   4.593083  -0.053102   0.002677  -0.000046
    10  C   -0.057628   0.591022  -0.053102   5.500582   0.371422  -0.072538
    11  C    0.000254  -0.009956   0.002677   0.371422   4.379187   0.508624
    12  C    0.000104   0.002955  -0.000046  -0.072538   0.508624   5.241675
    13  C    0.000002  -0.000092  -0.000003   0.003300  -0.045256   0.517316
    14  C   -0.000330   0.000065   0.000002   0.005153  -0.049673  -0.027883
    15  C   -0.000123  -0.000031   0.000000   0.000022   0.000095   0.000010
    16  C   -0.000429  -0.000006   0.000000   0.000058  -0.000182  -0.000004
    17  C   -0.000146   0.000009   0.000000   0.000002   0.000000   0.000000
    18  C   -0.000003   0.000001   0.000000   0.000000   0.000000   0.000000
    19  C    0.000000   0.000000   0.000000   0.000000   0.000000   0.000000
    20  C    0.000000   0.000000   0.000000   0.000000   0.000000   0.000000
    21  C    0.000003   0.000000   0.000000   0.000000   0.000000   0.000000
    22  C   -0.000040   0.000000   0.000000   0.000001  -0.000013  -0.000001
    23  S    0.002649  -0.083841   0.338809   0.272998  -0.043078  -0.000173
    24  H    0.391484  -0.030918  -0.000128  -0.003984   0.000242   0.000073
    25  H    0.382620  -0.039523   0.000066   0.004173  -0.000280   0.000004
    26  H    0.387820  -0.034771  -0.000176  -0.003611   0.000944   0.000015
    27  H    0.000002  -0.000173  -0.028571   0.000044  -0.000001   0.000000
    28  H   -0.000016   0.000282  -0.017263  -0.000054   0.000000   0.000000
    29  H    0.000000   0.000000   0.000000   0.000006  -0.000103   0.000019
    30  H   -0.000001   0.000017   0.000013  -0.001016  -0.024757   0.374342
    31  H    0.000000   0.000001   0.000000  -0.000053   0.002454  -0.051870
    32  H    0.000010   0.000001   0.000000  -0.000026  -0.000007   0.000008
    33  H    0.000000   0.000000   0.000000   0.000000   0.000000   0.000000
    34  H    0.000000   0.000000   0.000000   0.000000   0.000000   0.000000
    35  H    0.000000   0.000000   0.000000   0.000000   0.000000   0.000000
    36  H    0.000000   0.000000   0.000000   0.000000   0.000000   0.000000
    37  H    0.000000   0.000000   0.000000   0.000000   0.000000   0.000000
    38  H    0.000000   0.000000   0.000000   0.000000   0.000000   0.000000
    39  H    0.000000   0.000000   0.000000   0.000000   0.000000   0.000000
    40  H    0.000000   0.000000   0.000000   0.000000   0.000000   0.000000
    41  H    0.000000   0.000000   0.000000   0.000000   0.000000   0.000000
    42  O    0.000000   0.000010   0.000193   0.000000   0.000000   0.000000
    43  H   -0.000001   0.000000  -0.000041   0.000000   0.000000   0.000000
    44  H    0.000000   0.000000  -0.000003   0.000000   0.000000   0.000000
             13         14         15         16         17         18
     1  N    0.000001  -0.000002   0.000000   0.000000   0.000000   0.000000
     2  N    0.000000   0.000000   0.000000   0.000000   0.000000   0.000000
     3  N    0.486898   0.515788   0.002656  -0.000005  -0.000001   0.000000
     4  N    0.002019   0.318123   0.197941  -0.049532   0.004715   0.000192
     5  N    0.000000   0.000000   0.000135   0.003556  -0.060223   0.289483
     6  N   -0.013741   0.499131   0.002047  -0.002715  -0.000304   0.000020
     7  C    0.000002  -0.000330  -0.000123  -0.000429  -0.000146  -0.000003
     8  C   -0.000092   0.000065  -0.000031  -0.000006   0.000009   0.000001
     9  C   -0.000003   0.000002   0.000000   0.000000   0.000000   0.000000
    10  C    0.003300   0.005153   0.000022   0.000058   0.000002   0.000000
    11  C   -0.045256  -0.049673   0.000095  -0.000182   0.000000   0.000000
    12  C    0.517316  -0.027883   0.000010  -0.000004   0.000000   0.000000
    13  C    4.614853  -0.071877  -0.000068   0.000000   0.000000   0.000000
    14  C   -0.071877   3.994369  -0.028056  -0.001807  -0.000068   0.000017
    15  C   -0.000068  -0.028056   4.549550   0.588370  -0.045273  -0.023525
    16  C    0.000000  -0.001807   0.588370   4.859732   0.530254  -0.032912
    17  C    0.000000  -0.000068  -0.045273   0.530254   5.024431   0.563511
    18  C    0.000000   0.000017  -0.023525  -0.032912   0.563511   4.422758
    19  C    0.000000   0.000000   0.000010  -0.000255  -0.009716  -0.046683
    20  C    0.000000   0.000000   0.000010  -0.000067   0.002409  -0.047432
    21  C    0.000000  -0.000047  -0.049103  -0.039795  -0.039743   0.575418
    22  C    0.000004   0.001185   0.593417  -0.047396  -0.041160  -0.034218
    23  S    0.000307  -0.000112   0.000000   0.000000   0.000000   0.000000
    24  H   -0.000005   0.000248   0.000733   0.000064  -0.000130  -0.000029
    25  H    0.000000   0.000017   0.000006   0.000021   0.000005   0.000000
    26  H    0.000000  -0.000123  -0.000049   0.000894   0.001102   0.000033
    27  H    0.000000   0.000000   0.000000   0.000000   0.000000   0.000000
    28  H    0.000000   0.000000   0.000000   0.000000   0.000000   0.000000
    29  H    0.000367  -0.021557  -0.023781   0.001661  -0.000011  -0.000001
    30  H   -0.022543   0.000459   0.000000   0.000000   0.000000   0.000000
    31  H    0.406788   0.003567   0.000003   0.000000   0.000000   0.000000
    32  H   -0.000003   0.002266  -0.023652   0.376390  -0.030826   0.001598
    33  H    0.000000  -0.000003   0.001661  -0.025754   0.380116  -0.031210
    34  H    0.000000   0.000000   0.000000   0.000007   0.000473   0.003335
    35  H    0.000000   0.000000  -0.000007   0.000159  -0.001291  -0.003414
    36  H    0.000000   0.000000  -0.000006  -0.000235   0.002171   0.002175
    37  H    0.000000   0.000000   0.000000   0.000002  -0.000053   0.003284
    38  H    0.000000   0.000000  -0.000005  -0.000019   0.000215   0.002103
    39  H    0.000000   0.000000  -0.000009   0.000006  -0.000060  -0.003205
    40  H    0.000000   0.000000   0.001762   0.000280   0.002819  -0.030295
    41  H    0.000000   0.000209  -0.032946   0.003334   0.000255   0.001623
    42  O    0.000000   0.000000   0.000000   0.000000   0.000000   0.000000
    43  H    0.000000   0.000000   0.000000   0.000000   0.000000   0.000000
    44  H    0.000000   0.000000   0.000000   0.000000   0.000000   0.000000
             19         20         21         22         23         24
     1  N    0.000000   0.000000   0.000000   0.000000  -0.080906   0.002887
     2  N    0.000000   0.000000   0.000000   0.000000  -0.068895   0.000001
     3  N    0.000000   0.000000   0.000000  -0.000132  -0.000003   0.000012
     4  N    0.000000   0.000000   0.004349  -0.058833   0.000002  -0.000164
     5  N    0.266539   0.267514  -0.061037   0.003705   0.000000   0.000000
     6  N    0.000000   0.000000  -0.000039  -0.000243   0.002288   0.002834
     7  C    0.000000   0.000000   0.000003  -0.000040   0.002649   0.391484
     8  C    0.000000   0.000000   0.000000   0.000000  -0.083841  -0.030918
     9  C    0.000000   0.000000   0.000000   0.000000   0.338809  -0.000128
    10  C    0.000000   0.000000   0.000000   0.000001   0.272998  -0.003984
    11  C    0.000000   0.000000   0.000000  -0.000013  -0.043078   0.000242
    12  C    0.000000   0.000000   0.000000  -0.000001  -0.000173   0.000073
    13  C    0.000000   0.000000   0.000000   0.000004   0.000307  -0.000005
    14  C    0.000000   0.000000  -0.000047   0.001185  -0.000112   0.000248
    15  C    0.000010   0.000010  -0.049103   0.593417   0.000000   0.000733
    16  C   -0.000255  -0.000067  -0.039795  -0.047396   0.000000   0.000064
    17  C   -0.009716   0.002409  -0.039743  -0.041160   0.000000  -0.000130
    18  C   -0.046683  -0.047432   0.575418  -0.034218   0.000000  -0.000029
    19  C    4.931310  -0.051625   0.002276  -0.000074   0.000000   0.000000
    20  C   -0.051625   4.931114  -0.009895  -0.000285   0.000000   0.000000
    21  C    0.002276  -0.009895   5.013516   0.527245   0.000000   0.000013
    22  C   -0.000074  -0.000285   0.527245   4.901920   0.000000   0.000278
    23  S    0.000000   0.000000   0.000000   0.000000  15.403147   0.000102
    24  H    0.000000   0.000000   0.000013   0.000278   0.000102   0.475516
    25  H    0.000000   0.000000  -0.000001   0.000000  -0.000039  -0.023761
    26  H   -0.000001   0.000000  -0.000012  -0.000042   0.000029  -0.022824
    27  H    0.000000   0.000000   0.000000   0.000000   0.000096   0.000000
    28  H    0.000000   0.000000   0.000000   0.000000   0.002875   0.000000
    29  H    0.000000   0.000000   0.000063  -0.002035   0.000000   0.000001
    30  H    0.000000   0.000000   0.000000   0.000000   0.000267  -0.000001
    31  H    0.000000   0.000000   0.000000   0.000000  -0.000013   0.000000
    32  H   -0.000005   0.000002   0.000208   0.003518   0.000000  -0.000005
    33  H    0.000364  -0.000057   0.002782   0.000359   0.000000  -0.000001
    34  H    0.403978  -0.007509  -0.000049   0.000002   0.000000   0.000000
    35  H    0.404868   0.003941  -0.000090   0.000005   0.000000   0.000000
    36  H    0.391017   0.000679   0.000311  -0.000019   0.000000   0.000000
    37  H   -0.007503   0.404204   0.000493   0.000008   0.000000   0.000000
    38  H    0.000588   0.390860   0.002186  -0.000214   0.000000   0.000000
    39  H    0.003988   0.404728  -0.001062   0.000124   0.000000   0.000000
    40  H   -0.000061   0.000450   0.379577  -0.025975   0.000000   0.000000
    41  H    0.000002  -0.000004  -0.027443   0.376731   0.000000   0.000000
    42  O    0.000000   0.000000   0.000000   0.000000  -0.000011   0.000000
    43  H    0.000000   0.000000   0.000000   0.000000   0.000004   0.000000
    44  H    0.000000   0.000000   0.000000   0.000000   0.000001   0.000000
             25         26         27         28         29         30
     1  N   -0.000592   0.000574   0.002522   0.003524   0.000000  -0.000005
     2  N   -0.000016   0.000000   0.330927   0.293544   0.000000   0.000000
     3  N    0.000000   0.000000   0.000000   0.000000   0.006837   0.002718
     4  N   -0.000001   0.000002   0.000000   0.000000   0.326226   0.000015
     5  N    0.000000  -0.000003   0.000000   0.000000   0.000000   0.000000
     6  N    0.000560   0.000009   0.000000   0.000000   0.003821   0.002523
     7  C    0.382620   0.387820   0.000002  -0.000016   0.000000  -0.000001
     8  C   -0.039523  -0.034771  -0.000173   0.000282   0.000000   0.000017
     9  C    0.000066  -0.000176  -0.028571  -0.017263   0.000000   0.000013
    10  C    0.004173  -0.003611   0.000044  -0.000054   0.000006  -0.001016
    11  C   -0.000280   0.000944  -0.000001   0.000000  -0.000103  -0.024757
    12  C    0.000004   0.000015   0.000000   0.000000   0.000019   0.374342
    13  C    0.000000   0.000000   0.000000   0.000000   0.000367  -0.022543
    14  C    0.000017  -0.000123   0.000000   0.000000  -0.021557   0.000459
    15  C    0.000006  -0.000049   0.000000   0.000000  -0.023781   0.000000
    16  C    0.000021   0.000894   0.000000   0.000000   0.001661   0.000000
    17  C    0.000005   0.001102   0.000000   0.000000  -0.000011   0.000000
    18  C    0.000000   0.000033   0.000000   0.000000  -0.000001   0.000000
    19  C    0.000000  -0.000001   0.000000   0.000000   0.000000   0.000000
    20  C    0.000000   0.000000   0.000000   0.000000   0.000000   0.000000
    21  C   -0.000001  -0.000012   0.000000   0.000000   0.000063   0.000000
    22  C    0.000000  -0.000042   0.000000   0.000000  -0.002035   0.000000
    23  S   -0.000039   0.000029   0.000096   0.002875   0.000000   0.000267
    24  H   -0.023761  -0.022824   0.000000   0.000000   0.000001  -0.000001
    25  H    0.524376  -0.026158   0.000000   0.000006   0.000000   0.000000
    26  H   -0.026158   0.508024   0.000000   0.000000   0.000000   0.000000
    27  H    0.000000   0.000000   0.333297  -0.013361   0.000000   0.000000
    28  H    0.000006   0.000000  -0.013361   0.240768   0.000000   0.000000
    29  H    0.000000   0.000000   0.000000   0.000000   0.309313  -0.000001
    30  H    0.000000   0.000000   0.000000   0.000000  -0.000001   0.447083
    31  H    0.000000   0.000000   0.000000   0.000000  -0.000035  -0.000104
    32  H    0.000000   0.000063   0.000000   0.000000  -0.000067   0.000000
    33  H    0.000000   0.000039   0.000000   0.000000   0.000002   0.000000
    34  H    0.000000   0.000000   0.000000   0.000000   0.000000   0.000000
    35  H    0.000000   0.000004   0.000000   0.000000   0.000000   0.000000
    36  H    0.000000   0.000000   0.000000   0.000000   0.000000   0.000000
    37  H    0.000000   0.000000   0.000000   0.000000   0.000000   0.000000
    38  H    0.000000   0.000000   0.000000   0.000000   0.000000   0.000000
    39  H    0.000000   0.000000   0.000000   0.000000   0.000000   0.000000
    40  H    0.000000   0.000000   0.000000   0.000000  -0.000001   0.000000
    41  H    0.000000   0.000000   0.000000   0.000000   0.001188   0.000000
    42  O    0.000000   0.000000   0.000199   0.019627   0.000000   0.000000
    43  H    0.000002   0.000000  -0.000008  -0.000420   0.000000   0.000000
    44  H    0.000000   0.000000  -0.000017  -0.000495   0.000000   0.000000
             31         32         33         34         35         36
     1  N    0.000000   0.000000   0.000000   0.000000   0.000000   0.000000
     2  N    0.000000   0.000000   0.000000   0.000000   0.000000   0.000000
     3  N   -0.043048  -0.000015   0.000000   0.000000   0.000000   0.000000
     4  N   -0.000051  -0.003418  -0.000104   0.000000   0.000000   0.000000
     5  N    0.000000  -0.000069  -0.004006  -0.036882  -0.044705  -0.057681
     6  N   -0.000573   0.001847  -0.000007   0.000000   0.000000   0.000000
     7  C    0.000000   0.000010   0.000000   0.000000   0.000000   0.000000
     8  C    0.000001   0.000001   0.000000   0.000000   0.000000   0.000000
     9  C    0.000000   0.000000   0.000000   0.000000   0.000000   0.000000
    10  C   -0.000053  -0.000026   0.000000   0.000000   0.000000   0.000000
    11  C    0.002454  -0.000007   0.000000   0.000000   0.000000   0.000000
    12  C   -0.051870   0.000008   0.000000   0.000000   0.000000   0.000000
    13  C    0.406788  -0.000003   0.000000   0.000000   0.000000   0.000000
    14  C    0.003567   0.002266  -0.000003   0.000000   0.000000   0.000000
    15  C    0.000003  -0.023652   0.001661   0.000000  -0.000007  -0.000006
    16  C    0.000000   0.376390  -0.025754   0.000007   0.000159  -0.000235
    17  C    0.000000  -0.030826   0.380116   0.000473  -0.001291   0.002171
    18  C    0.000000   0.001598  -0.031210   0.003335  -0.003414   0.002175
    19  C    0.000000  -0.000005   0.000364   0.403978   0.404868   0.391017
    20  C    0.000000   0.000002  -0.000057  -0.007509   0.003941   0.000679
    21  C    0.000000   0.000208   0.002782  -0.000049  -0.000090   0.000311
    22  C    0.000000   0.003518   0.000359   0.000002   0.000005  -0.000019
    23  S   -0.000013   0.000000   0.000000   0.000000   0.000000   0.000000
    24  H    0.000000  -0.000005  -0.000001   0.000000   0.000000   0.000000
    25  H    0.000000   0.000000   0.000000   0.000000   0.000000   0.000000
    26  H    0.000000   0.000063   0.000039   0.000000   0.000004   0.000000
    27  H    0.000000   0.000000   0.000000   0.000000   0.000000   0.000000
    28  H    0.000000   0.000000   0.000000   0.000000   0.000000   0.000000
    29  H   -0.000035  -0.000067   0.000002   0.000000   0.000000   0.000000
    30  H   -0.000104   0.000000   0.000000   0.000000   0.000000   0.000000
    31  H    0.473697   0.000000   0.000000   0.000000   0.000000   0.000000
    32  H    0.000000   0.455684  -0.001910   0.000000   0.000000  -0.000002
    33  H    0.000000  -0.001910   0.476372   0.000165  -0.002145  -0.000151
    34  H    0.000000   0.000000   0.000165   0.516985  -0.025455  -0.030638
    35  H    0.000000   0.000000  -0.002145  -0.025455   0.535766  -0.044179
    36  H    0.000000  -0.000002  -0.000151  -0.030638  -0.044179   0.576731
    37  H    0.000000   0.000000   0.000000   0.001854   0.000250  -0.000065
    38  H    0.000000   0.000000   0.000005  -0.000049  -0.000360   0.002400
    39  H    0.000000   0.000000  -0.000001   0.000241   0.000020  -0.000357
    40  H    0.000000   0.000011  -0.000124   0.000000  -0.000003   0.000009
    41  H    0.000000  -0.000132   0.000013   0.000000   0.000000   0.000000
    42  O    0.000000   0.000000   0.000000   0.000000   0.000000   0.000000
    43  H    0.000000   0.000000   0.000000   0.000000   0.000000   0.000000
    44  H    0.000000   0.000000   0.000000   0.000000   0.000000   0.000000
             37         38         39         40         41         42
     1  N    0.000000   0.000000   0.000000   0.000000   0.000000   0.000080
     2  N    0.000000   0.000000   0.000000   0.000000   0.000000  -0.010005
     3  N    0.000000   0.000000   0.000000   0.000000  -0.000025   0.000000
     4  N    0.000000   0.000000   0.000000  -0.000114   0.000165   0.000000
     5  N   -0.036970  -0.058083  -0.044620  -0.004179  -0.000074   0.000000
     6  N    0.000000   0.000000   0.000000   0.000000  -0.000027   0.000000
     7  C    0.000000   0.000000   0.000000   0.000000   0.000000   0.000000
     8  C    0.000000   0.000000   0.000000   0.000000   0.000000   0.000010
     9  C    0.000000   0.000000   0.000000   0.000000   0.000000   0.000193
    10  C    0.000000   0.000000   0.000000   0.000000   0.000000   0.000000
    11  C    0.000000   0.000000   0.000000   0.000000   0.000000   0.000000
    12  C    0.000000   0.000000   0.000000   0.000000   0.000000   0.000000
    13  C    0.000000   0.000000   0.000000   0.000000   0.000000   0.000000
    14  C    0.000000   0.000000   0.000000   0.000000   0.000209   0.000000
    15  C    0.000000  -0.000005  -0.000009   0.001762  -0.032946   0.000000
    16  C    0.000002  -0.000019   0.000006   0.000280   0.003334   0.000000
    17  C   -0.000053   0.000215  -0.000060   0.002819   0.000255   0.000000
    18  C    0.003284   0.002103  -0.003205  -0.030295   0.001623   0.000000
    19  C   -0.007503   0.000588   0.003988  -0.000061   0.000002   0.000000
    20  C    0.404204   0.390860   0.404728   0.000450  -0.000004   0.000000
    21  C    0.000493   0.002186  -0.001062   0.379577  -0.027443   0.000000
    22  C    0.000008  -0.000214   0.000124  -0.025975   0.376731   0.000000
    23  S    0.000000   0.000000   0.000000   0.000000   0.000000  -0.000011
    24  H    0.000000   0.000000   0.000000   0.000000   0.000000   0.000000
    25  H    0.000000   0.000000   0.000000   0.000000   0.000000   0.000000
    26  H    0.000000   0.000000   0.000000   0.000000   0.000000   0.000000
    27  H    0.000000   0.000000   0.000000   0.000000   0.000000   0.000199
    28  H    0.000000   0.000000   0.000000   0.000000   0.000000   0.019627
    29  H    0.000000   0.000000   0.000000  -0.000001   0.001188   0.000000
    30  H    0.000000   0.000000   0.000000   0.000000   0.000000   0.000000
    31  H    0.000000   0.000000   0.000000   0.000000   0.000000   0.000000
    32  H    0.000000   0.000000   0.000000   0.000011  -0.000132   0.000000
    33  H    0.000000   0.000005  -0.000001  -0.000124   0.000013   0.000000
    34  H    0.001854  -0.000049   0.000241   0.000000   0.000000   0.000000
    35  H    0.000250  -0.000360   0.000020  -0.000003   0.000000   0.000000
    36  H   -0.000065   0.002400  -0.000357   0.000009   0.000000   0.000000
    37  H    0.516268  -0.031098  -0.024976   0.000169   0.000000   0.000000
    38  H   -0.031098   0.579284  -0.044340   0.000028  -0.000003   0.000000
    39  H   -0.024976  -0.044340   0.534670  -0.002416   0.000001   0.000000
    40  H    0.000169   0.000028  -0.002416   0.476937  -0.002128   0.000000
    41  H    0.000000  -0.000003   0.000001  -0.002128   0.473555   0.000000
    42  O    0.000000   0.000000   0.000000   0.000000   0.000000   8.334725
    43  H    0.000000   0.000000   0.000000   0.000000   0.000000   0.268751
    44  H    0.000000   0.000000   0.000000   0.000000   0.000000   0.266507
             43         44
     1  N    0.000289   0.000006
     2  N    0.000460   0.000502
     3  N    0.000000   0.000000
     4  N    0.000000   0.000000
     5  N    0.000000   0.000000
     6  N    0.000000   0.000000
     7  C   -0.000001   0.000000
     8  C    0.000000   0.000000
     9  C   -0.000041  -0.000003
    10  C    0.000000   0.000000
    11  C    0.000000   0.000000
    12  C    0.000000   0.000000
    13  C    0.000000   0.000000
    14  C    0.000000   0.000000
    15  C    0.000000   0.000000
    16  C    0.000000   0.000000
    17  C    0.000000   0.000000
    18  C    0.000000   0.000000
    19  C    0.000000   0.000000
    20  C    0.000000   0.000000
    21  C    0.000000   0.000000
    22  C    0.000000   0.000000
    23  S    0.000004   0.000001
    24  H    0.000000   0.000000
    25  H    0.000002   0.000000
    26  H    0.000000   0.000000
    27  H   -0.000008  -0.000017
    28  H   -0.000420  -0.000495
    29  H    0.000000   0.000000
    30  H    0.000000   0.000000
    31  H    0.000000   0.000000
    32  H    0.000000   0.000000
    33  H    0.000000   0.000000
    34  H    0.000000   0.000000
    35  H    0.000000   0.000000
    36  H    0.000000   0.000000
    37  H    0.000000   0.000000
    38  H    0.000000   0.000000
    39  H    0.000000   0.000000
    40  H    0.000000   0.000000
    41  H    0.000000   0.000000
    42  O    0.268751   0.266507
    43  H    0.293304  -0.016635
    44  H   -0.016635   0.305890
 Mulliken atomic charges:
              1
     1  N   -0.594741
     2  N   -0.931071
     3  N   -0.630325
     4  N   -0.914133
     5  N   -0.669265
     6  N   -0.686318
     7  C   -0.492296
     8  C    0.338014
     9  C    0.387725
    10  C   -0.384453
    11  C    0.422447
    12  C   -0.368198
    13  C    0.121729
    14  C    0.860938
    15  C    0.288208
    16  C   -0.163673
    17  C   -0.283482
    18  C    0.387377
    19  C   -0.289018
    20  C   -0.289038
    21  C   -0.280125
    22  C   -0.197822
    23  S    0.253498
    24  H    0.207463
    25  H    0.178517
    26  H    0.188221
    27  H    0.375043
    28  H    0.470984
    29  H    0.398088
    30  H    0.220990
    31  H    0.209237
    32  H    0.218532
    33  H    0.203595
    34  H    0.173541
    35  H    0.176638
    36  H    0.157841
    37  H    0.174134
    38  H    0.156503
    39  H    0.177267
    40  H    0.203253
    41  H    0.205706
    42  O   -0.880074
    43  H    0.454296
    44  H    0.444244
 Sum of Mulliken atomic charges =   0.00000
 Mulliken charges with hydrogens summed into heavy atoms:
              1
     1  N   -0.594741
     2  N   -0.085043
     3  N   -0.630325
     4  N   -0.516045
     5  N   -0.669265
     6  N   -0.686318
     7  C    0.081906
     8  C    0.338014
     9  C    0.387725
    10  C   -0.384453
    11  C    0.422447
    12  C   -0.147208
    13  C    0.330965
    14  C    0.860938
    15  C    0.288208
    16  C    0.054859
    17  C   -0.079887
    18  C    0.387377
    19  C    0.219001
    20  C    0.218866
    21  C   -0.076872
    22  C    0.007885
    23  S    0.253498
    42  O    0.018466
 Sum of Mulliken charges with hydrogens summed into heavy atoms =   0.00000
 Electronic spatial extent (au):  <R**2>=          12466.6714
 Charge=              0.0000 electrons
 Dipole moment (field-independent basis, Debye):
    X=              0.5844    Y=             -4.8622    Z=              1.2585  Tot=              5.0563
 Quadrupole moment (field-independent basis, Debye-Ang):
   XX=           -115.3681   YY=           -110.7207   ZZ=           -149.2323
   XY=             11.4686   XZ=             -9.4164   YZ=             -8.5405
 Traceless Quadrupole moment (field-independent basis, Debye-Ang):
   XX=              9.7390   YY=             14.3863   ZZ=            -24.1253
   XY=             11.4686   XZ=             -9.4164   YZ=             -8.5405
 Octapole moment (field-independent basis, Debye-Ang**2):
  XXX=             70.2106  YYY=           -206.4613  ZZZ=              0.8444  XYY=           -126.5913
  XXY=            -87.5125  XXZ=             35.7569  XZZ=             47.9608  YZZ=             35.9937
  YYZ=             14.5056  XYZ=             13.2333
 Hexadecapole moment (field-independent basis, Debye-Ang**3):
 XXXX=          -9788.8065 YYYY=          -2331.2652 ZZZZ=           -501.4688 XXXY=           -164.1293
 XXXZ=           -393.2355 YYYX=            771.8085 YYYZ=            -78.6629 ZZZX=            -20.4334
 ZZZY=            -14.9228 XXYY=          -1668.7774 XXZZ=          -1963.6804 YYZZ=           -900.9120
 XXYZ=           -210.6676 YYXZ=            -83.7420 ZZXY=           -179.9859
 N-N= 2.097627255085D+03 E-N=-7.524935603076D+03  KE= 1.415201465128D+03
 Calling FoFJK, ICntrl=      2127 FMM=F ISym2X=0 I1Cent= 0 IOpClX= 0 NMat=1 NMatS=1 NMatT=0.
 -------------------------------------------------------------------
 Center     Atomic                   Forces (Hartrees/Bohr)
 Number     Number              X              Y              Z
 -------------------------------------------------------------------
      1        7           0.005479929    0.001035515   -0.001508374
      2        7           0.003270200    0.006994282    0.000471626
      3        7           0.001102066    0.000170935    0.000060863
      4        7           0.000965147    0.000011129    0.000073363
      5        7           0.000278114   -0.000423430   -0.000056365
      6        7           0.001223628    0.000918059    0.000042494
      7        6          -0.000142370    0.000223101    0.000088297
      8        6          -0.001615776   -0.001622112    0.000135014
      9        6          -0.008904186   -0.005034604    0.001594688
     10        6           0.000556561    0.002510790    0.000280859
     11        6          -0.000771349   -0.002412326   -0.000180535
     12        6           0.000101230    0.001383583    0.000089685
     13        6          -0.000836534   -0.000808394   -0.000069817
     14        6          -0.001517997   -0.000321081   -0.000077435
     15        6          -0.000271540    0.000323356   -0.000038201
     16        6          -0.000013425   -0.000030300    0.000047159
     17        6           0.000118495    0.000008979   -0.000102550
     18        6          -0.000327319    0.000374714    0.000010402
     19        6           0.000022705    0.000141280   -0.000110599
     20        6          -0.000075470    0.000002447    0.000104156
     21        6           0.000082519   -0.000146730    0.000099332
     22        6          -0.000013931   -0.000002196    0.000070276
     23       16           0.000337517    0.001130111    0.000059330
     24        1           0.000129870    0.000002874   -0.000041295
     25        1          -0.000049468   -0.000038882   -0.000093987
     26        1           0.000089284    0.000017289    0.000066027
     27        1           0.000341628    0.001664182   -0.000331908
     28        1           0.000985347   -0.004672598   -0.001125711
     29        1          -0.000002901   -0.000064175   -0.000042353
     30        1           0.000076690   -0.000110831    0.000029150
     31        1          -0.000018074    0.000065446   -0.000004602
     32        1          -0.000025384    0.000003285   -0.000069305
     33        1          -0.000011034   -0.000012030    0.000023702
     34        1           0.000049331   -0.000021664   -0.000005814
     35        1          -0.000029376    0.000015887    0.000019738
     36        1          -0.000014552   -0.000016343    0.000026170
     37        1           0.000035630   -0.000028764    0.000005213
     38        1           0.000011150    0.000013314   -0.000017168
     39        1          -0.000009001    0.000020728   -0.000002691
     40        1           0.000025319    0.000000588   -0.000028103
     41        1          -0.000027211   -0.000006522    0.000006154
     42        8          -0.001324882   -0.004192264    0.001422699
     43        1           0.001682211    0.002978456   -0.000680935
     44        1          -0.000962792   -0.000045083   -0.000238650
 -------------------------------------------------------------------
 Cartesian Forces:  Max     0.008904186 RMS     0.001489770
 -----------------------------------------------------------------------------------------------
                       Internal Coordinate Forces (Hartree/Bohr or radian)
  Cent   Atom   N1       Length/X         N2         Alpha/Y        N3         Beta/Z          J
 -----------------------------------------------------------------------------------------------
      1  N            0.005480(     1)      0.001036(    48)     -0.001508(    95)
      2  N            0.002700(     2)      0.006819(    49)      0.000510(    96)
      3  N            0.001102(     3)      0.000171(    50)      0.000061(    97)
      4  N            0.000965(     4)      0.000011(    51)      0.000073(    98)
      5  N            0.000278(     5)     -0.000423(    52)     -0.000056(    99)
      6  N            0.001224(     6)      0.000918(    53)      0.000042(   100)
      7  C           -0.000142(     7)      0.000223(    54)      0.000088(   101)
      8  C           -0.001616(     8)     -0.001622(    55)      0.000135(   102)
      9  C           -0.008904(     9)     -0.005035(    56)      0.001595(   103)
     10  C            0.000557(    10)      0.002511(    57)      0.000281(   104)
     11  C           -0.000771(    11)     -0.002412(    58)     -0.000181(   105)
     12  C            0.000101(    12)      0.001384(    59)      0.000090(   106)
     13  C           -0.000837(    13)     -0.000808(    60)     -0.000070(   107)
     14  C           -0.001518(    14)     -0.000321(    61)     -0.000077(   108)
     15  C           -0.000272(    15)      0.000323(    62)     -0.000038(   109)
     16  C           -0.000013(    16)     -0.000030(    63)      0.000047(   110)
     17  C            0.000118(    17)      0.000009(    64)     -0.000103(   111)
     18  C           -0.000327(    18)      0.000375(    65)      0.000010(   112)
     19  C            0.000023(    19)      0.000141(    66)     -0.000111(   113)
     20  C           -0.000075(    20)      0.000002(    67)      0.000104(   114)
     21  C            0.000083(    21)     -0.000147(    68)      0.000099(   115)
     22  C           -0.000014(    22)     -0.000002(    69)      0.000070(   116)
     23  S            0.000338(    23)      0.001130(    70)      0.000059(   117)
     24  H            0.000130(    24)      0.000003(    71)     -0.000041(   118)
     25  H           -0.000049(    25)     -0.000039(    72)     -0.000094(   119)
     26  H            0.000089(    26)      0.000017(    73)      0.000066(   120)
     27  H            0.000342(    27)      0.001664(    74)     -0.000332(   121)
     28  H            0.000759(    28)     -0.005114(    75)     -0.000513(   122)
     29  H           -0.000003(    29)     -0.000064(    76)     -0.000042(   123)
     30  H            0.000077(    30)     -0.000111(    77)      0.000029(   124)
     31  H           -0.000018(    31)      0.000065(    78)     -0.000005(   125)
     32  H           -0.000025(    32)      0.000003(    79)     -0.000069(   126)
     33  H           -0.000011(    33)     -0.000012(    80)      0.000024(   127)
     34  H            0.000049(    34)     -0.000022(    81)     -0.000006(   128)
     35  H           -0.000029(    35)      0.000016(    82)      0.000020(   129)
     36  H           -0.000015(    36)     -0.000016(    83)      0.000026(   130)
     37  H            0.000036(    37)     -0.000029(    84)      0.000005(   131)
     38  H            0.000011(    38)      0.000013(    85)     -0.000017(   132)
     39  H           -0.000009(    39)      0.000021(    86)     -0.000003(   133)
     40  H            0.000025(    40)      0.000001(    87)     -0.000028(   134)
     41  H           -0.000027(    41)     -0.000007(    88)      0.000006(   135)
         X            0.000000(    42)      0.000000(    89)      0.000000(   136)
         X            0.000211(    43)     -0.000637(    90)     -0.000007(   137)
         X           -0.000020(    44)     -0.000005(    91)     -0.000141(   138)
     42  O       28   0.001021(    45)     43   0.001903(    92)      2   0.001126(   139)     0
     43  H       45   0.000616(    46)     28  -0.004813(    93)     43   0.000041(   140)     0
     44  H       45   0.000565(    47)     46   0.001302(    94)     44  -0.000640(   141)     0
 -----------------------------------------------------------------------------------------------
 Internal  Forces:  Max     0.008904186 RMS     0.001429101

 GradGradGradGradGradGradGradGradGradGradGradGradGradGradGradGradGradGrad
 Berny optimization.
 Search for a local minimum.
 Step number   1 out of a maximum of  100
 All quantities printed in internal units (Hartrees-Bohrs-Radians)
 Second derivative matrix not updated -- first step.
 The second derivative matrix:
                          roh       phi
           roh          0.04241
           phi          0.00000   0.00000
     Eigenvalues ---    0.00000   0.04241
 RFO step:  Lambda=-5.47286756D-05 EMin= 4.01419738D-13
 Linear search not attempted -- first point.
 Maximum step size (   0.300) exceeded in Quadratic search.
    -- Step size scaled by   0.404
 Variable       Old X    -DE/DX   Delta X   Delta X   Delta X     New X
                                 (Linear)    (Quad)   (Total)
   roh        3.79703   0.00102   0.00000   0.00971   0.00971   3.80674
   phi        1.49221   0.00004   0.00000   0.29984   0.29984   1.79205
         Item               Value     Threshold  Converged?
 Maximum Force            0.001021     0.000450     NO 
 RMS     Force            0.000723     0.000300     NO 
 Maximum Displacement     0.299843     0.001800     NO 
 RMS     Displacement     0.212132     0.001200     NO 
 Predicted change in Energy=-2.010226D-05
 GradGradGradGradGradGradGradGradGradGradGradGradGradGradGradGradGradGrad

 ---------------------------------------------------------------------------------------------------
                            Z-MATRIX (ANGSTROMS AND DEGREES)
   CD    Cent   Atom    N1       Length/X        N2       Alpha/Y        N3        Beta/Z          J
 ---------------------------------------------------------------------------------------------------
      1      1  N        0  -3.013310         -2.511550         -0.412190
      2      2  N        0  -5.227560         -3.080250          0.017760
      3      3  N        0  -0.978170          3.560350          0.131290
      4      4  N        0   1.039990          2.528080          0.168310
      5      5  N        0   4.965790         -1.515470         -0.008700
      6      6  N        0  -0.840430          1.198040          0.040700
      7      7  C        0  -0.761600         -1.677320         -0.873750
      8      8  C        0  -2.178550         -1.415950         -0.453810
      9      9  C        0  -4.200080         -2.188550         -0.056910
     10     10  C        0  -2.743260         -0.232570         -0.111110
     11     11  C        0  -2.161610          1.109840         -0.029690
     12     12  C        0  -2.958510          2.253840         -0.018700
     13     13  C        0  -2.287360          3.456620          0.067680
     14     14  C        0  -0.310180          2.407830          0.107020
[...]
    12  C    0.000000   0.000000   0.000000  -0.000001  -0.000171   0.000073
    13  C    0.000000   0.000000   0.000000   0.000004   0.000307  -0.000005
    14  C    0.000000   0.000000  -0.000047   0.001186  -0.000112   0.000248
    15  C    0.000010   0.000010  -0.049104   0.593412   0.000000   0.000733
    16  C   -0.000255  -0.000067  -0.039795  -0.047391   0.000000   0.000064
    17  C   -0.009715   0.002409  -0.039742  -0.041160   0.000000  -0.000130
    18  C   -0.046682  -0.047432   0.575409  -0.034216   0.000000  -0.000029
    19  C    4.931329  -0.051624   0.002276  -0.000074   0.000000   0.000000
    20  C   -0.051624   4.931128  -0.009894  -0.000285   0.000000   0.000000
    21  C    0.002276  -0.009894   5.013499   0.527259   0.000000   0.000013
    22  C   -0.000074  -0.000285   0.527259   4.901896   0.000000   0.000278
    23  S    0.000000   0.000000   0.000000   0.000000  15.402536   0.000102
    24  H    0.000000   0.000000   0.000013   0.000278   0.000102   0.475529
    25  H    0.000000   0.000000  -0.000001   0.000000  -0.000039  -0.023754
    26  H   -0.000001   0.000000  -0.000012  -0.000042   0.000028  -0.022827
    27  H    0.000000   0.000000   0.000000   0.000000   0.000117   0.000000
    28  H    0.000000   0.000000   0.000000   0.000000   0.002895   0.000000
    29  H    0.000000   0.000000   0.000063  -0.002035   0.000000   0.000001
    30  H    0.000000   0.000000   0.000000   0.000000   0.000265  -0.000001
    31  H    0.000000   0.000000   0.000000   0.000000  -0.000013   0.000000
    32  H   -0.000005   0.000002   0.000208   0.003518   0.000000  -0.000005
    33  H    0.000365  -0.000057   0.002781   0.000359   0.000000  -0.000001
    34  H    0.403979  -0.007508  -0.000049   0.000002   0.000000   0.000000
    35  H    0.404868   0.003941  -0.000090   0.000005   0.000000   0.000000
    36  H    0.391018   0.000680   0.000311  -0.000019   0.000000   0.000000
    37  H   -0.007502   0.404205   0.000493   0.000008   0.000000   0.000000
    38  H    0.000588   0.390861   0.002186  -0.000214   0.000000   0.000000
    39  H    0.003988   0.404727  -0.001062   0.000124   0.000000   0.000000
    40  H   -0.000061   0.000451   0.379577  -0.025975   0.000000   0.000000
    41  H    0.000002  -0.000004  -0.027437   0.376732   0.000000   0.000000
    42  O    0.000000   0.000000   0.000000   0.000000  -0.000009   0.000000
    43  H    0.000000   0.000000   0.000000   0.000000   0.000003   0.000000
    44  H    0.000000   0.000000   0.000000   0.000000   0.000001   0.000000
             25         26         27         28         29         30
     1  N   -0.000605   0.000571   0.002514   0.003572   0.000000  -0.000005
     2  N   -0.000016   0.000000   0.330961   0.295274   0.000000   0.000000
     3  N    0.000000   0.000000   0.000000   0.000000   0.006835   0.002718
     4  N   -0.000001   0.000002   0.000000   0.000000   0.326227   0.000015
     5  N    0.000000  -0.000003   0.000000   0.000000   0.000000   0.000000
     6  N    0.000559   0.000009   0.000000   0.000000   0.003821   0.002522
     7  C    0.382640   0.387818   0.000002  -0.000016   0.000000  -0.000001
     8  C   -0.039490  -0.034765  -0.000174   0.000285   0.000000   0.000017
     9  C    0.000065  -0.000176  -0.028503  -0.017505   0.000000   0.000013
    10  C    0.004175  -0.003609   0.000044  -0.000056   0.000006  -0.001014
    11  C   -0.000280   0.000944  -0.000001   0.000000  -0.000103  -0.024775
    12  C    0.000004   0.000015   0.000000   0.000000   0.000019   0.374340
    13  C    0.000000   0.000000   0.000000   0.000000   0.000367  -0.022526
    14  C    0.000017  -0.000123   0.000000   0.000000  -0.021562   0.000459
    15  C    0.000006  -0.000049   0.000000   0.000000  -0.023776   0.000000
    16  C    0.000021   0.000894   0.000000   0.000000   0.001661   0.000000
    17  C    0.000005   0.001102   0.000000   0.000000  -0.000011   0.000000
    18  C    0.000000   0.000033   0.000000   0.000000  -0.000001   0.000000
    19  C    0.000000  -0.000001   0.000000   0.000000   0.000000   0.000000
    20  C    0.000000   0.000000   0.000000   0.000000   0.000000   0.000000
    21  C   -0.000001  -0.000012   0.000000   0.000000   0.000063   0.000000
    22  C    0.000000  -0.000042   0.000000   0.000000  -0.002035   0.000000
    23  S   -0.000039   0.000028   0.000117   0.002895   0.000000   0.000265
    24  H   -0.023754  -0.022827   0.000000   0.000000   0.000001  -0.000001
    25  H    0.524050  -0.026133   0.000000   0.000006   0.000000   0.000000
    26  H   -0.026133   0.507927   0.000000   0.000000   0.000000   0.000000
    27  H    0.000000   0.000000   0.332641  -0.013497   0.000000   0.000000
    28  H    0.000006   0.000000  -0.013497   0.244542   0.000000   0.000000
    29  H    0.000000   0.000000   0.000000   0.000000   0.309293  -0.000001
    30  H    0.000000   0.000000   0.000000   0.000000  -0.000001   0.447085
    31  H    0.000000   0.000000   0.000000   0.000000  -0.000035  -0.000104
    32  H    0.000000   0.000063   0.000000   0.000000  -0.000067   0.000000
    33  H    0.000000   0.000039   0.000000   0.000000   0.000002   0.000000
    34  H    0.000000   0.000000   0.000000   0.000000   0.000000   0.000000
    35  H    0.000000   0.000004   0.000000   0.000000   0.000000   0.000000
    36  H    0.000000   0.000000   0.000000   0.000000   0.000000   0.000000
    37  H    0.000000   0.000000   0.000000   0.000000   0.000000   0.000000
    38  H    0.000000   0.000000   0.000000   0.000000   0.000000   0.000000
    39  H    0.000000   0.000000   0.000000   0.000000   0.000000   0.000000
    40  H    0.000000   0.000000   0.000000   0.000000  -0.000001   0.000000
    41  H    0.000000   0.000000   0.000000   0.000000   0.001188   0.000000
    42  O    0.000000   0.000000   0.000153   0.019345   0.000000   0.000000
    43  H    0.000001   0.000000  -0.000006  -0.000452   0.000000   0.000000
    44  H    0.000000   0.000000  -0.000013  -0.000525   0.000000   0.000000
             31         32         33         34         35         36
     1  N    0.000000   0.000000   0.000000   0.000000   0.000000   0.000000
     2  N    0.000000   0.000000   0.000000   0.000000   0.000000   0.000000
     3  N   -0.043041  -0.000015   0.000000   0.000000   0.000000   0.000000
     4  N   -0.000051  -0.003418  -0.000104   0.000000   0.000000   0.000000
     5  N    0.000000  -0.000069  -0.004006  -0.036881  -0.044703  -0.057681
     6  N   -0.000572   0.001845  -0.000007   0.000000   0.000000   0.000000
     7  C    0.000000   0.000010   0.000000   0.000000   0.000000   0.000000
     8  C    0.000001   0.000001   0.000000   0.000000   0.000000   0.000000
     9  C    0.000000   0.000000   0.000000   0.000000   0.000000   0.000000
    10  C   -0.000053  -0.000026   0.000000   0.000000   0.000000   0.000000
    11  C    0.002453  -0.000007   0.000000   0.000000   0.000000   0.000000
    12  C   -0.051871   0.000008   0.000000   0.000000   0.000000   0.000000
    13  C    0.406789  -0.000003   0.000000   0.000000   0.000000   0.000000
    14  C    0.003567   0.002266  -0.000003   0.000000   0.000000   0.000000
    15  C    0.000003  -0.023662   0.001661   0.000000  -0.000007  -0.000006
    16  C    0.000000   0.376392  -0.025755   0.000007   0.000159  -0.000235
    17  C    0.000000  -0.030820   0.380116   0.000473  -0.001291   0.002170
    18  C    0.000000   0.001598  -0.031205   0.003335  -0.003415   0.002174
    19  C    0.000000  -0.000005   0.000365   0.403979   0.404868   0.391018
    20  C    0.000000   0.000002  -0.000057  -0.007508   0.003941   0.000680
    21  C    0.000000   0.000208   0.002781  -0.000049  -0.000090   0.000311
    22  C    0.000000   0.003518   0.000359   0.000002   0.000005  -0.000019
    23  S   -0.000013   0.000000   0.000000   0.000000   0.000000   0.000000
    24  H    0.000000  -0.000005  -0.000001   0.000000   0.000000   0.000000
    25  H    0.000000   0.000000   0.000000   0.000000   0.000000   0.000000
    26  H    0.000000   0.000063   0.000039   0.000000   0.000004   0.000000
    27  H    0.000000   0.000000   0.000000   0.000000   0.000000   0.000000
    28  H    0.000000   0.000000   0.000000   0.000000   0.000000   0.000000
    29  H   -0.000035  -0.000067   0.000002   0.000000   0.000000   0.000000
    30  H   -0.000104   0.000000   0.000000   0.000000   0.000000   0.000000
    31  H    0.473632   0.000000   0.000000   0.000000   0.000000   0.000000
    32  H    0.000000   0.455700  -0.001910   0.000000   0.000000  -0.000002
    33  H    0.000000  -0.001910   0.476341   0.000165  -0.002144  -0.000151
    34  H    0.000000   0.000000   0.000165   0.516964  -0.025452  -0.030637
    35  H    0.000000   0.000000  -0.002144  -0.025452   0.535744  -0.044177
    36  H    0.000000  -0.000002  -0.000151  -0.030637  -0.044177   0.576726
    37  H    0.000000   0.000000   0.000000   0.001855   0.000250  -0.000065
    38  H    0.000000   0.000000   0.000005  -0.000049  -0.000360   0.002400
    39  H    0.000000   0.000000  -0.000001   0.000241   0.000020  -0.000357
    40  H    0.000000   0.000011  -0.000124   0.000000  -0.000003   0.000009
    41  H    0.000000  -0.000132   0.000013   0.000000   0.000000   0.000000
    42  O    0.000000   0.000000   0.000000   0.000000   0.000000   0.000000
    43  H    0.000000   0.000000   0.000000   0.000000   0.000000   0.000000
    44  H    0.000000   0.000000   0.000000   0.000000   0.000000   0.000000
             37         38         39         40         41         42
     1  N    0.000000   0.000000   0.000000   0.000000   0.000000   0.000067
     2  N    0.000000   0.000000   0.000000   0.000000   0.000000  -0.008395
     3  N    0.000000   0.000000   0.000000   0.000000  -0.000025   0.000000
     4  N    0.000000   0.000000   0.000000  -0.000114   0.000165   0.000000
     5  N   -0.036969  -0.058083  -0.044618  -0.004179  -0.000074   0.000000
     6  N    0.000000   0.000000   0.000000   0.000000  -0.000027   0.000000
     7  C    0.000000   0.000000   0.000000   0.000000   0.000000   0.000000
     8  C    0.000000   0.000000   0.000000   0.000000   0.000000   0.000008
     9  C    0.000000   0.000000   0.000000   0.000000   0.000000   0.000128
    10  C    0.000000   0.000000   0.000000   0.000000   0.000000   0.000000
    11  C    0.000000   0.000000   0.000000   0.000000   0.000000   0.000000
    12  C    0.000000   0.000000   0.000000   0.000000   0.000000   0.000000
    13  C    0.000000   0.000000   0.000000   0.000000   0.000000   0.000000
    14  C    0.000000   0.000000   0.000000   0.000000   0.000209   0.000000
    15  C    0.000000  -0.000005  -0.000009   0.001762  -0.032952   0.000000
    16  C    0.000002  -0.000019   0.000006   0.000280   0.003333   0.000000
    17  C   -0.000053   0.000215  -0.000060   0.002819   0.000255   0.000000
    18  C    0.003284   0.002102  -0.003206  -0.030291   0.001623   0.000000
    19  C   -0.007502   0.000588   0.003988  -0.000061   0.000002   0.000000
    20  C    0.404205   0.390861   0.404727   0.000451  -0.000004   0.000000
    21  C    0.000493   0.002186  -0.001062   0.379577  -0.027437   0.000000
    22  C    0.000008  -0.000214   0.000124  -0.025975   0.376732   0.000000
    23  S    0.000000   0.000000   0.000000   0.000000   0.000000  -0.000009
    24  H    0.000000   0.000000   0.000000   0.000000   0.000000   0.000000
    25  H    0.000000   0.000000   0.000000   0.000000   0.000000   0.000000
    26  H    0.000000   0.000000   0.000000   0.000000   0.000000   0.000000
    27  H    0.000000   0.000000   0.000000   0.000000   0.000000   0.000153
    28  H    0.000000   0.000000   0.000000   0.000000   0.000000   0.019345
    29  H    0.000000   0.000000   0.000000  -0.000001   0.001188   0.000000
    30  H    0.000000   0.000000   0.000000   0.000000   0.000000   0.000000
    31  H    0.000000   0.000000   0.000000   0.000000   0.000000   0.000000
    32  H    0.000000   0.000000   0.000000   0.000011  -0.000132   0.000000
    33  H    0.000000   0.000005  -0.000001  -0.000124   0.000013   0.000000
    34  H    0.001855  -0.000049   0.000241   0.000000   0.000000   0.000000
    35  H    0.000250  -0.000360   0.000020  -0.000003   0.000000   0.000000
    36  H   -0.000065   0.002400  -0.000357   0.000009   0.000000   0.000000
    37  H    0.516246  -0.031096  -0.024974   0.000169   0.000000   0.000000
    38  H   -0.031096   0.579278  -0.044339   0.000028  -0.000003   0.000000
    39  H   -0.024974  -0.044339   0.534659  -0.002415   0.000001   0.000000
    40  H    0.000169   0.000028  -0.002415   0.476912  -0.002128   0.000000
    41  H    0.000000  -0.000003   0.000001  -0.002128   0.473546   0.000000
    42  O    0.000000   0.000000   0.000000   0.000000   0.000000   8.332340
    43  H    0.000000   0.000000   0.000000   0.000000   0.000000   0.268808
    44  H    0.000000   0.000000   0.000000   0.000000   0.000000   0.266601
             43         44
     1  N    0.000245   0.000005
     2  N    0.000385   0.000421
     3  N    0.000000   0.000000
     4  N    0.000000   0.000000
     5  N    0.000000   0.000000
     6  N    0.000000   0.000000
     7  C   -0.000001   0.000000
     8  C    0.000000   0.000000
     9  C   -0.000033  -0.000001
    10  C    0.000000   0.000000
    11  C    0.000000   0.000000
    12  C    0.000000   0.000000
    13  C    0.000000   0.000000
    14  C    0.000000   0.000000
    15  C    0.000000   0.000000
    16  C    0.000000   0.000000
    17  C    0.000000   0.000000
    18  C    0.000000   0.000000
    19  C    0.000000   0.000000
    20  C    0.000000   0.000000
    21  C    0.000000   0.000000
    22  C    0.000000   0.000000
    23  S    0.000003   0.000001
    24  H    0.000000   0.000000
    25  H    0.000001   0.000000
    26  H    0.000000   0.000000
    27  H   -0.000006  -0.000013
    28  H   -0.000452  -0.000525
    29  H    0.000000   0.000000
    30  H    0.000000   0.000000
    31  H    0.000000   0.000000
    32  H    0.000000   0.000000
    33  H    0.000000   0.000000
    34  H    0.000000   0.000000
    35  H    0.000000   0.000000
    36  H    0.000000   0.000000
    37  H    0.000000   0.000000
    38  H    0.000000   0.000000
    39  H    0.000000   0.000000
    40  H    0.000000   0.000000
    41  H    0.000000   0.000000
    42  O    0.268808   0.266601
    43  H    0.294575  -0.016780
    44  H   -0.016780   0.306718
 Mulliken atomic charges:
              1
     1  N   -0.593703
     2  N   -0.928199
     3  N   -0.630251
     4  N   -0.914118
     5  N   -0.669259
     6  N   -0.686262
     7  C   -0.492319
     8  C    0.337824
     9  C    0.387583
    10  C   -0.384313
    11  C    0.422465
    12  C   -0.368203
    13  C    0.121749
    14  C    0.860967
    15  C    0.288178
    16  C   -0.163684
    17  C   -0.283476
    18  C    0.387391
    19  C   -0.289031
    20  C   -0.289047
    21  C   -0.280119
    22  C   -0.197815
    23  S    0.253933
    24  H    0.207466
    25  H    0.178769
    26  H    0.188291
    27  H    0.375762
    28  H    0.466132
    29  H    0.398110
    30  H    0.220992
    31  H    0.209295
    32  H    0.218519
    33  H    0.203621
    34  H    0.173556
    35  H    0.176653
    36  H    0.157843
    37  H    0.174149
    38  H    0.156506
    39  H    0.177275
    40  H    0.203273
    41  H    0.205714
    42  O   -0.879045
    43  H    0.453255
    44  H    0.443574
 Sum of Mulliken atomic charges =   0.00000
 Mulliken charges with hydrogens summed into heavy atoms:
              1
     1  N   -0.593703
     2  N   -0.086305
     3  N   -0.630251
     4  N   -0.516008
     5  N   -0.669259
     6  N   -0.686262
     7  C    0.082207
     8  C    0.337824
     9  C    0.387583
    10  C   -0.384313
    11  C    0.422465
    12  C   -0.147211
    13  C    0.331043
    14  C    0.860967
    15  C    0.288178
    16  C    0.054835
    17  C   -0.079855
    18  C    0.387391
    19  C    0.219021
    20  C    0.218882
    21  C   -0.076846
    22  C    0.007899
    23  S    0.253933
    42  O    0.017784
 Sum of Mulliken charges with hydrogens summed into heavy atoms =   0.00000
 Electronic spatial extent (au):  <R**2>=          12483.2666
 Charge=              0.0000 electrons
 Dipole moment (field-independent basis, Debye):
    X=              0.5962    Y=             -4.8214    Z=              1.2585  Tot=              5.0185
 Quadrupole moment (field-independent basis, Debye-Ang):
   XX=           -115.3525   YY=           -110.7361   ZZ=           -149.2415
   XY=             11.2199   XZ=             -9.3706   YZ=             -8.5225
 Traceless Quadrupole moment (field-independent basis, Debye-Ang):
   XX=              9.7576   YY=             14.3739   ZZ=            -24.1315
   XY=             11.2199   XZ=             -9.3706   YZ=             -8.5225
 Octapole moment (field-independent basis, Debye-Ang**2):
  XXX=             69.6389  YYY=           -208.0117  ZZZ=              0.8512  XYY=           -125.7715
  XXY=            -86.1828  XXZ=             35.3420  XZZ=             47.9117  YZZ=             36.4485
  YYZ=             14.2876  XYZ=             12.8410
 Hexadecapole moment (field-independent basis, Debye-Ang**3):
 XXXX=          -9780.3250 YYYY=          -2312.3070 ZZZZ=           -501.4343 XXXY=           -170.1783
 XXXZ=           -390.5701 YYYX=            773.8702 YYYZ=            -76.6396 ZZZX=            -20.4987
 ZZZY=            -14.9906 XXYY=          -1676.4955 XXZZ=          -1962.9511 YYZZ=           -905.8132
 XXYZ=           -207.6111 YYXZ=            -80.8272 ZZXY=           -181.3193
 N-N= 2.096716817817D+03 E-N=-7.523093256884D+03  KE= 1.415197166739D+03
 1\1\GINC-B41\FOpt\RHF\6-31G(d)\C16H20N6O1S1\RUPAKHETIC\28-Mar-2018\1\\
 #HF/6-31G* nosymm SCF=Tight opt=(Z-MATRIX,MaxCycle=200)\\Mol-Water Dim
 er\\0,1\N,0,-3.01331,-2.51155,-0.41219\N,0,-5.22756,-3.08025,0.01776\N
 ,0,-0.97817,3.56035,0.13129\N,0,1.03999,2.52808,0.16831\N,0,4.96579,-1
 .51547,-0.0087\N,0,-0.84043,1.19804,0.0407\C,0,-0.7616,-1.67732,-0.873
 75\C,0,-2.17855,-1.41595,-0.45381\C,0,-4.20008,-2.18855,-0.05691\C,0,-
 2.74326,-0.23257,-0.11111\C,0,-2.16161,1.10984,-0.02969\C,0,-2.95851,2
 .25384,-0.0187\C,0,-2.28736,3.45662,0.06768\C,0,-0.31018,2.40783,0.107
 02\C,0,2.00032,1.48794,0.11857\C,0,2.04918,0.49089,1.08054\C,0,3.01909
 ,-0.49053,1.0434\C,0,4.00146,-0.50964,0.04361\C,0,5.18471,-2.31613,1.1
 765\C,0,6.11511,-1.31633,-0.86371\C,0,3.95701,0.51458,-0.90628\C,0,2.9
 6534,1.47999,-0.87153\S,0,-4.44477,-0.50304,0.26866\H,0,-0.3237,-0.829
 86,-1.37539\H,0,-0.74791,-2.54516,-1.52064\H,0,-0.14764,-1.89114,-0.00
 521\H,0,-5.97008,-2.88098,0.65016\H,0,-4.93488,-4.03367,0.00875\H,0,1.
 36351,3.46879,0.16814\H,0,-4.02699,2.21893,-0.09266\H,0,-2.83523,4.383
 64,0.08106\H,0,1.31685,0.47914,1.86562\H,0,3.00679,-1.23797,1.81091\H,
 0,5.96939,-3.03215,0.97745\H,0,4.29634,-2.88014,1.43166\H,0,5.47495,-1
 .72296,2.04398\H,0,6.75956,-2.18123,-0.79487\H,0,6.69756,-0.43358,-0.5
 979\H,0,5.81297,-1.22539,-1.89952\H,0,4.68426,0.56815,-1.69104\H,0,2.9
 501,2.24274,-1.6304\X,0,-5.22756,-3.08025,0.01776\X,0,-5.03047,-4.0488
 7,-1.48812\X,0,-3.46763,-8.81333,-0.03642\O,28,roh,43,90.,2,180.,0\H,4
 5,0.9474,28,127.2302,43,phi,0\H,45,0.9474,46,105.5395,44,0.,0\\roh=2.0
 6026678\phi=86.60346396\\Version=EM64L-G09RevA.02\HF=-1416.5958952\RMS
 D=2.235e-09\RMSF=1.401e-03\Dipole=0.2345789,-1.8968668,0.4951515\Quadr
 upole=7.2545251,10.6866442,-17.9411693,8.341712,-6.9668387,-6.3362673\
 PG=C01 [X(C16H20N6O1S1)]\\@


 WHEN A MATHEMATICIAN ENGAGED IN INVESTIGATING
 PHYSICAL ACTIONS AND RESULTS HAS ARRIVED AT HIS
 CONCLUSIONS, MAY THEY NOT BE EXPRESSED IN COMMON
 LANGUAGE AS FULLY, CLEARLY, AND DEFINITELY AS IN
 MATHEMATICAL FORMULAE?
           - LETTER FROM M. FARADAY TO J.C. MAXWELL, 1857.
 Job cpu time:  0 days  0 hours 36 minutes 23.5 seconds.
 File lengths (MBytes):  RWF=    105 Int=      0 D2E=      0 Chk=     10 Scr=      1
 Normal termination of Gaussian 09 at Wed Mar 28 16:02:01 2018.
