 Entering Gaussian System, Link 0=/homes/huanglei/prog/g09/g09
 Initial command:
 /homes/huanglei/prog/g09/l1.exe /scratch/1867310.bmgt1.lcrc.anl.gov/1/Gau-19798.inp -scrdir=/scratch/1867310.bmgt1.lcrc.anl.gov/1/
 Entering Link 1 = /homes/huanglei/prog/g09/l1.exe PID=     19800.
  
 Copyright (c) 1988,1990,1992,1993,1995,1998,2003,2009, Gaussian, Inc.
                  All Rights Reserved.
  
 This is part of the Gaussian(R) 09 program.  It is based on
 the Gaussian(R) 03 system (copyright 2003, Gaussian, Inc.),
 the Gaussian(R) 98 system (copyright 1998, Gaussian, Inc.),
 the Gaussian(R) 94 system (copyright 1995, Gaussian, Inc.),
 the Gaussian 92(TM) system (copyright 1992, Gaussian, Inc.),
 the Gaussian 90(TM) system (copyright 1990, Gaussian, Inc.),
 the Gaussian 88(TM) system (copyright 1988, Gaussian, Inc.),
 the Gaussian 86(TM) system (copyright 1986, Carnegie Mellon
 University), and the Gaussian 82(TM) system (copyright 1983,
 Carnegie Mellon University). Gaussian is a federally registered
 trademark of Gaussian, Inc.
  
 This software contains proprietary and confidential information,
 including trade secrets, belonging to Gaussian, Inc.
  
 This software is provided under written license and may be
 used, copied, transmitted, or stored only in accord with that
 written license.
  
 The following legend is applicable only to US Government
 contracts under FAR:
  
                    RESTRICTED RIGHTS LEGEND
  
 Use, reproduction and disclosure by the US Government is
 subject to restrictions as set forth in subparagraphs (a)
 and (c) of the Commercial Computer Software - Restricted
 Rights clause in FAR 52.227-19.
  
 Gaussian, Inc.
 340 Quinnipiac St., Bldg. 40, Wallingford CT 06492
  
  
 ---------------------------------------------------------------
 Warning -- This program may not be used in any manner that
 competes with the business of Gaussian, Inc. or will provide
 assistance to any competitor of Gaussian, Inc.  The licensee
 of this program is prohibited from giving any competitor of
 Gaussian, Inc. access to this program.  By using this program,
 the user acknowledges that Gaussian, Inc. is engaged in the
 business of creating and licensing software in the field of
 computational chemistry and represents and warrants to the
 licensee that it is not a competitor of Gaussian, Inc. and that
 it will not use this program in any manner prohibited above.
 ---------------------------------------------------------------
  

 Cite this work as:
 Gaussian 09, Revision A.02,
 M. J. Frisch, G. W. Trucks, H. B. Schlegel, G. E. Scuseria, 
 M. A. Robb, J. R. Cheeseman, G. Scalmani, V. Barone, B. Mennucci, 
 G. A. Petersson, H. Nakatsuji, M. Caricato, X. Li, H. P. Hratchian, 
 A. F. Izmaylov, J. Bloino, G. Zheng, J. L. Sonnenberg, M. Hada, 
 M. Ehara, K. Toyota, R. Fukuda, J. Hasegawa, M. Ishida, T. Nakajima, 
 Y. Honda, O. Kitao, H. Nakai, T. Vreven, J. A. Montgomery, Jr., 
 J. E. Peralta, F. Ogliaro, M. Bearpark, J. J. Heyd, E. Brothers, 
 K. N. Kudin, V. N. Staroverov, R. Kobayashi, J. Normand, 
 K. Raghavachari, A. Rendell, J. C. Burant, S. S. Iyengar, J. Tomasi, 
 M. Cossi, N. Rega, J. M. Millam, M. Klene, J. E. Knox, J. B. Cross, 
 V. Bakken, C. Adamo, J. Jaramillo, R. Gomperts, R. E. Stratmann, 
 O. Yazyev, A. J. Austin, R. Cammi, C. Pomelli, J. W. Ochterski, 
 R. L. Martin, K. Morokuma, V. G. Zakrzewski, G. A. Voth, 
 P. Salvador, J. J. Dannenberg, S. Dapprich, A. D. Daniels, 
 O. Farkas, J. B. Foresman, J. V. Ortiz, J. Cioslowski, 
 and D. J. Fox, Gaussian, Inc., Wallingford CT, 2009.
 
 ******************************************
 Gaussian 09:  EM64L-G09RevA.02 11-Jun-2009
                28-Mar-2018 
 ******************************************
 %mem=5GB
 %nproc=3
 Will use up to    3 processors via shared memory.
 -------------------------------------------------------
 #HF/6-31G* nosymm SCF=Tight opt=(Z-MATRIX,MaxCycle=200)
 -------------------------------------------------------
 1/6=200,10=7,18=40,38=1/1,3;
 2/12=2,15=1,17=6,18=5,29=3,40=1/2;
 3/5=1,6=6,7=1,11=9,16=1,25=1,30=1,71=1/1,2,3;
 4//1;
 5/5=2,32=2,38=5/2;
 6/7=2,8=2,9=2,10=2,28=1/1;
 7/29=1,30=1/1,2,3,16;
 1/6=200,10=7,18=40/3(2);
 2/15=1,29=3/2;
 99//99;
 2/15=1,29=3/2;
 3/5=1,6=6,7=1,11=9,16=1,25=1,30=1,71=1/1,2,3;
 4/5=5,16=3/1;
 5/5=2,32=2,38=5/2;
 7/30=1/1,2,3,16;
 1/6=200,18=40/3(-5);
 2/15=1,29=3/2;
 6/7=2,8=2,9=2,10=2,19=2,28=1/1;
 99/9=1/99;
 ---------------
 Mol-Water Dimer
 ---------------
 Symbolic Z-matrix:
 Charge =  0 Multiplicity = 1
 N                    -3.01331  -2.51155  -0.41219 
 N99                  -5.22756  -3.08025   0.01776 
 N                    -0.97817   3.56035   0.13129 
 N                     1.03999   2.52808   0.16831 
 N                     4.96579  -1.51547  -0.0087 
 N                    -0.84043   1.19804   0.0407 
 C                    -0.7616   -1.67732  -0.87375 
 C                    -2.17855  -1.41595  -0.45381 
 C                    -4.20008  -2.18855  -0.05691 
 C                    -2.74326  -0.23257  -0.11111 
 C                    -2.16161   1.10984  -0.02969 
 C                    -2.95851   2.25384  -0.0187 
 C                    -2.28736   3.45662   0.06768 
 C                    -0.31018   2.40783   0.10702 
 C                     2.00032   1.48794   0.11857 
 C                     2.04918   0.49089   1.08054 
 C                     3.01909  -0.49053   1.0434 
 C                     4.00146  -0.50964   0.04361 
 C                     5.18471  -2.31613   1.1765 
 C                     6.11511  -1.31633  -0.86371 
 C                     3.95701   0.51458  -0.90628 
 C                     2.96534   1.47999  -0.87153 
 S                    -4.44477  -0.50304   0.26866 
 H                    -0.3237   -0.82986  -1.37539 
 H                    -0.74791  -2.54516  -1.52064 
 H                    -0.14764  -1.89114  -0.00521 
 H                    -5.97008  -2.88098   0.65016 
 H                    -4.93488  -4.03367   0.00875 
 H                     1.36351   3.46879   0.16814 
 H                    -4.02699   2.21893  -0.09266 
 H                    -2.83523   4.38364   0.08106 
 H                     1.31685   0.47914   1.86562 
 H                     3.00679  -1.23797   1.81091 
 H                     5.96939  -3.03215   0.97745 
 H                     4.29634  -2.88014   1.43166 
 H                     5.47495  -1.72296   2.04398 
 H                     6.75956  -2.18123  -0.79487 
 H                     6.69756  -0.43358  -0.5979 
 H                     5.81297  -1.22539  -1.89952 
 H                     4.68426   0.56815  -1.69104 
 H                     2.9501    2.24274  -1.6304 
 X1                   -4.53573  -3.31256   1.32826 
 X2                   -4.36546  -4.12728  -0.62296 
 H1W                  N99  roh      X2    90.      X1    180.     0
 X3                   H1W   1.5      N99   90.      X2    0.       0
 O1W                  H1W   0.9474   X3    90.      X2    180.     0
 H2W                  O1W   0.9474   H1W   105.5395  X3   phi      0
       Variables:
  roh                   2.0168                   
  phi                 -56.32026                  
 

 GradGradGradGradGradGradGradGradGradGradGradGradGradGradGradGradGradGrad
 Berny optimization.
 Initialization pass.
                       ----------------------------
                       !    Initial Parameters    !
                       ! (Angstroms and Degrees)  !
 ----------------------                            ----------------------
 !      Name          Value   Derivative information (Atomic Units)     !
 ------------------------------------------------------------------------
 !       roh         2.0168   estimate D2E/DX2                          !
 !       phi       -56.3203   estimate D2E/DX2                          !
 ------------------------------------------------------------------------
 Trust Radius=3.00D-01 FncErr=1.00D-07 GrdErr=1.00D-07
 Number of steps in this run= 100 maximum allowed number of steps= 100.
 GradGradGradGradGradGradGradGradGradGradGradGradGradGradGradGradGradGrad

 ---------------------------------------------------------------------------------------------------
                            Z-MATRIX (ANGSTROMS AND DEGREES)
   CD    Cent   Atom    N1       Length/X        N2       Alpha/Y        N3        Beta/Z          J
 ---------------------------------------------------------------------------------------------------
      1      1  N        0  -3.013310         -2.511550         -0.412190
      2      2  N        0  -5.227560         -3.080250          0.017760
      3      3  N        0  -0.978170          3.560350          0.131290
      4      4  N        0   1.039990          2.528080          0.168310
      5      5  N        0   4.965790         -1.515470         -0.008700
      6      6  N        0  -0.840430          1.198040          0.040700
      7      7  C        0  -0.761600         -1.677320         -0.873750
      8      8  C        0  -2.178550         -1.415950         -0.453810
      9      9  C        0  -4.200080         -2.188550         -0.056910
     10     10  C        0  -2.743260         -0.232570         -0.111110
     11     11  C        0  -2.161610          1.109840         -0.029690
     12     12  C        0  -2.958510          2.253840         -0.018700
     13     13  C        0  -2.287360          3.456620          0.067680
     14     14  C        0  -0.310180          2.407830          0.107020
     15     15  C        0   2.000320          1.487940          0.118570
     16     16  C        0   2.049180          0.490890          1.080540
     17     17  C        0   3.019090         -0.490530          1.043400
     18     18  C        0   4.001460         -0.509640          0.043610
     19     19  C        0   5.184710         -2.316130          1.176500
     20     20  C        0   6.115110         -1.316330         -0.863710
     21     21  C        0   3.957010          0.514580         -0.906280
     22     22  C        0   2.965340          1.479990         -0.871530
     23     23  S        0  -4.444770         -0.503040          0.268660
     24     24  H        0  -0.323700         -0.829860         -1.375390
     25     25  H        0  -0.747910         -2.545160         -1.520640
     26     26  H        0  -0.147640         -1.891140         -0.005210
     27     27  H        0  -5.970080         -2.880980          0.650160
     28     28  H        0  -4.934880         -4.033670          0.008750
     29     29  H        0   1.363510          3.468790          0.168140
     30     30  H        0  -4.026990          2.218930         -0.092660
     31     31  H        0  -2.835230          4.383640          0.081060
     32     32  H        0   1.316850          0.479140          1.865620
     33     33  H        0   3.006790         -1.237970          1.810910
     34     34  H        0   5.969390         -3.032150          0.977450
     35     35  H        0   4.296340         -2.880140          1.431660
     36     36  H        0   5.474950         -1.722960          2.043980
     37     37  H        0   6.759560         -2.181230         -0.794870
     38     38  H        0   6.697560         -0.433580         -0.597900
     39     39  H        0   5.812970         -1.225390         -1.899520
     40     40  H        0   4.684260          0.568150         -1.691040
     41     41  H        0   2.950100          2.242740         -1.630400
     42         X        0  -4.535730         -3.312560          1.328260
     43         X        0  -4.365460         -4.127280         -0.622960
     44     42  H        2   2.016800(    43)     43   90.000(    88)     42  180.000(   132)      0
     45         X       44   1.500000(    44)      2   90.000(    89)     43    0.000(   133)      0
     46     43  O       44   0.947400(    45)     45   90.000(    90)     43  180.000(   134)      0
     47     44  H       46   0.947400(    46)     44  105.540(    91)     45  -56.320(   135)      0
 ---------------------------------------------------------------------------------------------------
                         Z-Matrix orientation:                         
 ---------------------------------------------------------------------
 Center     Atomic      Atomic             Coordinates (Angstroms)
 Number     Number       Type             X           Y           Z
 ---------------------------------------------------------------------
      1          7           0       -3.013310   -2.511550   -0.412190
      2          7           0       -5.227560   -3.080250    0.017760
      3          7           0       -0.978170    3.560350    0.131290
      4          7           0        1.039990    2.528080    0.168310
      5          7           0        4.965790   -1.515470   -0.008700
      6          7           0       -0.840430    1.198040    0.040700
      7          6           0       -0.761600   -1.677320   -0.873750
      8          6           0       -2.178550   -1.415950   -0.453810
      9          6           0       -4.200080   -2.188550   -0.056910
     10          6           0       -2.743260   -0.232570   -0.111110
     11          6           0       -2.161610    1.109840   -0.029690
     12          6           0       -2.958510    2.253840   -0.018700
     13          6           0       -2.287360    3.456620    0.067680
     14          6           0       -0.310180    2.407830    0.107020
     15          6           0        2.000320    1.487940    0.118570
     16          6           0        2.049180    0.490890    1.080540
     17          6           0        3.019090   -0.490530    1.043400
     18          6           0        4.001460   -0.509640    0.043610
     19          6           0        5.184710   -2.316130    1.176500
     20          6           0        6.115110   -1.316330   -0.863710
     21          6           0        3.957010    0.514580   -0.906280
     22          6           0        2.965340    1.479990   -0.871530
     23         16           0       -4.444770   -0.503040    0.268660
     24          1           0       -0.323700   -0.829860   -1.375390
     25          1           0       -0.747910   -2.545160   -1.520640
     26          1           0       -0.147640   -1.891140   -0.005210
     27          1           0       -5.970080   -2.880980    0.650160
     28          1           0       -4.934880   -4.033670    0.008750
     29          1           0        1.363510    3.468790    0.168140
     30          1           0       -4.026990    2.218930   -0.092660
     31          1           0       -2.835230    4.383640    0.081060
     32          1           0        1.316850    0.479140    1.865620
     33          1           0        3.006790   -1.237970    1.810910
     34          1           0        5.969390   -3.032150    0.977450
     35          1           0        4.296340   -2.880140    1.431660
     36          1           0        5.474950   -1.722960    2.043980
     37          1           0        6.759560   -2.181230   -0.794870
     38          1           0        6.697560   -0.433580   -0.597900
     39          1           0        5.812970   -1.225390   -1.899520
     40          1           0        4.684260    0.568150   -1.691040
     41          1           0        2.950100    2.242740   -1.630400
     42         -1           0       -4.535730   -3.312560    1.328260
     43         -1           0       -4.365460   -4.127280   -0.622960
     44          1           0       -6.157748   -2.767901   -1.744248
     45         -1           0       -5.295650   -3.814929   -2.384966
     46          8           0       -6.594707   -2.621174   -2.571958
     47          1           0       -5.907400   -2.404153   -3.186838
 ---------------------------------------------------------------------
                    Distance matrix (angstroms):
                    1          2          3          4          5
     1  N    0.000000
     2  N    2.326194   0.000000
     3  N    6.426907   7.884654   0.000000
     4  N    6.493388   8.411790   2.267140   0.000000
     5  N    8.051150  10.312789   7.817558   5.638576   0.000000
     6  N    4.322913   6.127903   2.368056   2.306788   6.409194
     7  C    2.445235   4.765270   5.337621   4.692228   5.794610
     8  C    1.378004   3.505529   5.152360   5.128490   7.158884
     9  C    1.280225   1.362505   6.592873   7.053769   9.190676
    10  C    2.314590   3.781221   4.190530   4.691721   7.815739
    11  C    3.739808   5.192221   2.726068   3.507257   7.595559
    12  C    4.781922   5.796761   2.377228   4.012254   8.775097
    13  C    6.031279   7.167841   1.314833   3.455947   8.794072
    14  C    5.637091   7.369370   1.332330   1.356899   6.575829
    15  C    6.435380   8.551068   3.628560   1.416545   4.222639
    16  C    6.072207   8.175175   4.414466   2.449647   3.703854
    17  C    6.526340   8.704357   5.763650   3.714112   2.438659
    18  C    7.309063   9.580371   6.431891   4.244243   1.394404
    19  C    8.352823  10.504376   8.579427   6.454574   1.446956
    20  C    9.217401  11.512800   8.665256   6.449914   1.446249
    21  C    7.614916   9.906209   5.891457   3.703773   2.438112
    22  C    7.203308   9.418611   4.569991   2.426259   3.703924
    23  S    2.558661   2.705129   5.342970   6.267404   9.468927
    24  H    3.315092   5.572519   4.687468   3.939343   5.506052
    25  H    2.522266   4.766577   6.329229   5.637987   5.999383
    26  H    2.960170   5.217288   5.516082   4.579310   5.127212
    27  H    3.163472   0.995477   8.165729   8.867423  11.040469
    28  H    2.487262   0.997373   8.563861   8.875871  10.215914
    29  H    7.433559   9.292725   2.343759   0.994787   6.152279
    30  H    4.848411   5.434599   3.338393   5.083106   9.737704
    31  H    6.915103   7.838170   2.031994   4.297446   9.780770
    32  H    5.734364   7.675490   4.215314   2.675008   4.561393
    33  H    6.542613   8.626349   6.459482   4.555170   2.688060
    34  H    9.104451  11.238105   9.614865   7.474614   2.068822
    35  H    7.547624   9.630360   8.425635   6.438067   2.094069
    36  H    8.871595  10.976863   8.556548   6.423266   2.125039
    37  H    9.785936  12.048222   9.679668   7.471198   2.068553
    38  H    9.932444  12.230797   8.683319   6.431688   2.125246
    39  H    9.042653  11.358247   8.552607   6.414499   2.092143
    40  H    8.388837  10.699299   6.658623   4.536432   2.692768
    41  H    7.723313   9.895695   4.502328   2.639185   4.562572
    42  X    2.447151   1.500002   7.831083   8.157648   9.761961
    43  X    2.117384   1.500003   8.434588   8.610390   9.709330
    44  H    3.424556   2.016800   8.390020   9.138530  11.327568
    45  X    3.286292   2.513460   8.908811   9.321658  10.781062
    46  O    4.183661   2.964200   8.778626   9.607939  11.892770
    47  H    4.010732   3.344958   8.419179   9.156974  11.362948
                    6          7          8          9         10
     6  N    0.000000
     7  C    3.018299   0.000000
     8  C    2.977927   1.500804   0.000000
     9  C    4.771349   3.570956   2.200233   0.000000
    10  C    2.385467   2.568248   1.355260   2.439492   0.000000
    11  C    1.325990   3.231211   2.561207   3.877561   1.465268
    12  C    2.367384   4.583835   3.776906   4.612785   2.497420
    13  C    2.682446   5.437975   4.901605   5.961708   3.721550
    14  C    1.322556   4.225416   4.292625   6.023695   3.597106
    15  C    2.856565   4.316454   5.120854   7.210571   5.051184
    16  C    3.151377   4.052267   4.885076   6.893942   4.991083
    17  C    4.330424   4.401994   5.487577   7.497358   5.882526
    18  C    5.134207   4.989165   6.265888   8.372222   6.752181
    19  C    7.066947   6.322199   7.595119   9.466354   8.297703
    20  C    7.451144   6.886186   8.304381  10.383392   8.956096
    21  C    4.937542   5.202957   6.448005   8.635187   6.788531
    22  C    3.923716   4.884536   5.917817   8.091047   6.008262
    23  S    3.992105   4.031101   2.547768   1.734016   1.764232
    24  H    2.526796   1.077770   2.152505   4.314018   2.794536
    25  H    4.056832   1.082497   2.111865   3.766584   3.363966
    26  H    3.166244   1.084909   2.133458   4.063668   3.082095
    27  H    6.582033   5.558720   4.211978   2.027882   4.243345
    28  H    6.643518   4.873136   3.829331   1.987136   4.389297
    29  H    3.167001   5.664281   6.065781   7.937864   5.535667
    30  H    3.348756   5.143310   4.093838   4.411022   2.767337
    31  H    3.758843   6.476638   5.861106   6.713831   4.621124
    32  H    2.915649   4.058870   4.603145   6.422555   4.571486
    33  H    4.885580   4.647708   5.661129   7.505420   6.145573
    34  H    8.071286   7.111170   8.429089  10.256690   9.215904
    35  H    6.704680   5.687218   6.900946   8.653513   7.677613
    36  H    7.240815   6.885477   8.056629   9.911444   8.625813
    37  H    8.359276   7.538435   8.977293  10.984459   9.724628
    38  H    7.738946   7.567169   8.931469  11.051296   9.455498
    39  H    7.342016   6.669439   8.123471  10.226635   8.797339
    40  H    5.823906   5.947057   7.250210   9.444643   7.635796
    41  H    4.272247   5.451248   6.408855   8.557878   6.391381
    42  X    5.971479   4.665503   3.511296   1.815146   3.843315
    43  X    6.420694   4.364975   3.487477   2.026435   4.249975
    44  H    6.869396   5.573647   4.396250   2.648626   4.555630
    45  X    7.131809   5.235528   4.381869   3.043883   4.951607
    46  O    7.384042   6.148163   5.043963   3.499553   5.157019
    47  H    7.004783   5.688403   4.727612   3.571817   4.918095
                   11         12         13         14         15
    11  C    0.000000
    12  C    1.394240   0.000000
    13  C    2.352163   1.380067   0.000000
    14  C    2.265229   2.655781   2.238470   0.000000
    15  C    4.181698   5.019506   4.718314   2.486914   0.000000
    16  C    4.398461   5.421557   5.350422   3.192018   1.386320
    17  C    5.527419   6.662682   6.685090   4.512354   2.409885
    18  C    6.372717   7.488784   7.435123   5.206332   2.828517
    19  C    8.195156   9.414094   9.507153   7.324848   5.072524
    20  C    8.665217   9.787274   9.708246   7.489729   5.075461
    21  C    6.209690   7.185906   6.971109   4.777037   2.413790
    22  C    5.208774   6.034746   5.690346   3.542242   1.382615
    23  S    2.811266   3.145144   4.513726   5.059064   6.747275
    24  H    2.991865   4.276919   4.930753   3.560949   3.606270
    25  H    4.192911   5.492993   6.396408   5.231921   5.148366
    26  H    3.614216   5.008196   5.760404   4.303505   4.005900
    27  H    5.558173   5.990267   7.353019   7.765371   9.104797
    28  H    5.843646   6.590870   7.944638   7.930349   8.865508
    29  H    4.246205   4.493425   3.652272   1.982577   2.081286
    30  H    2.171103   1.071605   2.141004   3.726960   6.075149
    31  H    3.344218   2.135696   1.076897   3.206303   5.636402
    32  H    4.011193   4.997892   5.008823   3.075670   2.130022
    33  H    5.967611   7.150176   7.287390   5.215112   3.362675
    34  H    9.180609  10.423119  10.540671   8.353684   6.076381
    35  H    7.730498   9.005229   9.239052   7.137039   5.106470
    36  H    8.404874   9.549494   9.538725   7.367698   5.107850
    37  H    9.539597  10.710423  10.694677   8.476680   6.078449
    38  H    9.010544  10.039790   9.813534   7.594665   5.125391
    39  H    8.517247   9.621922   9.560672   7.397260   5.096189
    40  H    7.065370   8.003137   7.748538   5.617995   3.365150
    41  H    5.474972   6.124490   5.638082   3.698014   2.128544
    42  X    5.199817   5.940264   7.243344   7.215924   8.199274
    43  X    5.712823   6.562266   7.893733   7.725660   8.520782
    44  H    5.826294   6.199235   7.550341   8.025549   9.388096
    45  X    6.294671   6.920361   8.242615   8.353899   9.360517
    46  O    6.327396   6.595970   7.903196   8.483106   9.899407
    47  H    6.028821   6.358455   7.618743   8.082918   9.413084
                   16         17         18         19         20
    16  C    0.000000
    17  C    1.380322   0.000000
    18  C    2.426454   1.401783   0.000000
    19  C    4.209527   2.835567   2.438632   0.000000
    20  C    4.855712   3.728854   2.437518   2.455138   0.000000
    21  C    2.754602   2.385622   1.397603   3.722652   2.830449
    22  C    2.372392   2.748235   2.422737   4.850831   4.211949
    23  S    6.619549   7.503971   8.449230   9.840648  10.651515
    24  H    3.661493   4.140040   4.563235   6.250098   6.477403
    25  H    4.879288   4.998609   5.398772   6.520966   7.003044
    26  H    3.417446   3.617937   4.373323   5.478231   6.347398
    27  H    8.709952   9.309891  10.267559  11.181477  12.279729
    28  H    8.390320   8.768693   9.606153  10.330522  11.412598
    29  H    3.189123   4.379868   4.775164   7.005973   6.822008
    30  H    6.425135   7.634072   8.480547  10.345673  10.768230
    31  H    6.325340   7.678326   8.407492  10.507442  10.653208
    32  H    1.073683   2.124600   3.391834   4.821697   5.804847
    33  H    2.106992   1.071396   2.154804   2.511621   4.101388
    34  H    5.271668   3.894670   3.332846   1.080754   2.520941
    35  H    4.066553   2.737216   2.762772   1.082781   3.319962
    36  H    4.191092   2.924259   2.764923   1.090235   3.004965
    37  H    5.731062   4.497646   3.332323   2.526787   1.080790
    38  H    5.027847   4.028430   2.772413   2.996866   1.090482
    39  H    5.098283   4.123901   2.751294   3.323601   1.082802
    40  H    3.825084   3.372055   2.153336   4.097842   2.506606
    41  H    3.351094   3.824229   3.388696   5.801333   4.824115
    42  X    7.608458   8.069715   9.076910   9.772556  11.055770
    43  X    8.085605   8.398469   9.139857   9.885548  10.853651
    44  H    9.271074   9.857573  10.559625  11.721186  12.389731
    45  X    9.192189   9.588546  10.161652  11.169977  11.779756
    46  O    9.886479  10.489783  11.116588  12.365220  12.890314
    47  H    9.481506  10.061764  10.592945  11.919790  12.293130
                   21         22         23         24         25
    21  C    0.000000
    22  C    1.384425   0.000000
    23  S    8.544351   7.755138   0.000000
    24  H    4.511326   4.050564   4.448925   0.000000
    25  H    5.645859   5.514653   4.586788   1.772937   0.000000
    26  H    4.842269   4.669654   4.524064   1.742041   1.756301
    27  H   10.606576  10.058595   2.850739   6.339681   5.665351
    28  H   10.029435   9.674131   3.573949   5.783012   4.699512
    29  H    4.075289   2.757190   7.037162   4.869040   6.593760
    30  H    8.204331   7.074274   2.777447   4.965367   5.957184
    31  H    7.879022   6.556312   5.148345   5.967379   7.411519
    32  H    3.828202   3.348315   6.058979   3.861221   4.987623
    33  H    3.370085   3.818967   7.644894   4.627227   5.187075
    34  H    4.491927   5.727342  10.740275   7.070284   7.183295
    35  H    4.135847   5.107541   9.132917   5.781691   5.854293
    36  H    4.001845   5.005720  10.150902   6.790733   7.218484
    37  H    3.890256   5.273188  11.379122   7.234347   7.551244
    38  H    2.916285   4.203105  11.176192   7.075282   7.793923
    39  H    2.731045   4.060153  10.509235   6.171700   6.703021
    40  H    1.071266   2.111335   9.398248   5.209005   6.263402
    41  H    2.127147   1.076059   8.113559   4.497073   6.050728
    42  X    9.579499   9.169169   3.004069   5.587013   4.801324
    43  X    9.533658   9.232762   3.733148   5.270195   4.049148
    44  H   10.667014  10.101334   3.480759   6.158585   5.419037
    45  X   10.321961   9.928273   4.328318   5.886439   4.800136
    46  O   11.133112  10.540660   4.144615   6.630695   5.941051
    47  H   10.536913   9.958551   4.206422   6.077619   5.423693
                   26         27         28         29         30
    26  H    0.000000
    27  H    5.942230   0.000000
    28  H    5.244835   1.676824   0.000000
    29  H    5.571577   9.712542   9.797042   0.000000
    30  H    5.652405   5.507855   6.318984   5.539644   0.000000
    31  H    6.826672   7.932582   8.675533   4.298133   2.477184
    32  H    3.356034   8.115855   7.930797   3.438259   5.951332
    33  H    3.698020   9.199512   8.610101   5.249062   8.065221
    34  H    6.299649  11.944912  10.992931   8.008204  11.342248
    35  H    4.774063  10.296122   9.411202   7.106820   9.879367
    36  H    5.986734  11.587599  10.855694   6.883094  10.506693
    37  H    6.958242  12.830491  11.867488   7.871942  11.670654
    38  H    7.023712  12.962119  12.191896   6.653375  11.059252
    39  H    6.289714  12.168899  11.271389   6.790305  10.580780
    40  H    5.677798  11.440834  10.797865   4.785148   9.009205
    41  H    5.415367  10.536749  10.210438   2.693550   7.144578
    42  X    4.801449   1.644214   1.555772   9.062760   5.733691
    43  X    4.813724   2.397687   0.855605   9.547105   6.377316
    44  H    6.317781   2.404411   2.484065   9.956046   5.668894
    45  X    5.988840   3.246399   2.430613  10.193886   6.578116
    46  O    6.977523   3.292370   3.377903  10.388889   6.013875
    47  H    6.600059   3.867021   3.716572   9.930432   5.872204
                   31         32         33         34         35
    31  H    0.000000
    32  H    5.972398   0.000000
    33  H    8.289999   2.409846   0.000000
    34  H   11.546376   5.896112   3.562406   0.000000
    35  H   10.268686   4.511147   2.122143   1.740261   0.000000
    36  H   10.497748   4.708593   2.526134   1.759527   1.761568
    37  H   11.658678   6.616560   4.665095   2.118856   3.393135
    38  H   10.702368   5.987823   4.480088   3.124824   3.983796
    39  H   10.496441   6.107110   4.652107   3.400854   4.016855
    40  H    8.616324   4.898694   4.282479   4.662034   4.668237
    41  H    6.401765   4.242634   4.895015   6.613733   6.118208
    42  X    7.979894   6.994172   7.837505  10.514716   8.843254
    43  X    8.676002   7.726628   8.283834  10.515215   8.989082
    44  H    8.094159   8.913138   9.948296  12.431610  10.926433
    45  X    8.907945   8.957213   9.652803  11.782177  10.365652
    46  O    8.380906   9.586281  10.644789  13.062302  11.606504
    47  H    8.135817   9.275263  10.285925  12.601342  11.210415
                   36         37         38         39         40
    36  H    0.000000
    37  H    3.149493   0.000000
    38  H    3.183835   1.759807   0.000000
    39  H    3.989113   1.740665   1.761726   0.000000
    40  H    4.452499   3.559365   2.500359   2.129375   0.000000
    41  H    5.966801   5.897593   4.719343   4.505150   2.411481
    42  X   10.161338  11.548643  11.755230  11.039494  10.449129
    43  X   10.475065  11.295253  11.663381  10.660723  10.251112
    44  H   12.278527  12.965429  13.115720  12.070689  11.343774
    45  X   11.832063  12.268882  12.588257  11.416777  10.922065
    46  O   12.953389  13.479171  13.614949  12.504033  11.754272
    47  H   12.545254  12.892754  13.018095  11.849631  11.102039
                   41         42         43         44         45
    41  H    0.000000
    42  X    9.780219   0.000000
    43  X    9.752410   2.121325   0.000000
    44  H   10.395786   3.516802   2.513462   0.000000
    45  X   10.259489   3.823336   2.016800   1.500000   0.000000
    46  O   10.753954   4.464202   3.322122   0.947400   1.774138
    47  H   10.122817   4.805497   3.452567   1.508660   1.734222
                   46         47
    46  O    0.000000
    47  H    0.947400   0.000000
 Symmetry turned off by external request.
 Stoichiometry    C16H20N6OS
 Framework group  C1[X(C16H20N6OS)]
 Deg. of freedom   126
 Full point group                 C1      NOp   1
 Rotational constants (GHZ):      0.3350324      0.1035227      0.0844556
 Standard basis: 6-31G(d) (6D, 7F)
 Integral buffers will be    131072 words long.
 Raffenetti 1 integral format.
 Two-electron integral symmetry is turned off.
   404 basis functions,   776 primitive gaussians,   404 cartesian basis functions
    91 alpha electrons       91 beta electrons
       nuclear repulsion energy      2106.9692704405 Hartrees.
 NAtoms=   44 NActive=   44 NUniq=   44 SFac= 7.50D-01 NAtFMM=   80 NAOKFM=F Big=F
 One-electron integrals computed using PRISM.
 NBasis=   404 RedAO= T  NBF=   404
 NBsUse=   404 1.00D-06 NBFU=   404
 Harris functional with IExCor=  205 diagonalized for initial guess.
 ExpMin= 1.17D-01 ExpMax= 2.19D+04 ExpMxC= 3.30D+03 IAcc=1 IRadAn=         1 AccDes= 0.00D+00
 HarFok:  IExCor=  205 AccDes= 0.00D+00 IRadAn=         1 IDoV= 1
 ScaDFX=  1.000000  1.000000  1.000000  1.000000
 FoFCou: FMM=F IPFlag=           0 FMFlag=      100000 FMFlg1=           0
         NFxFlg=           0 DoJE=T BraDBF=F KetDBF=T FulRan=T
         Omega=  0.000000  0.000000  1.000000  0.000000  0.000000 ICntrl=     500 IOpCl=  0
         NMat0=    1 NMatS0=    1 NMatT0=    0 NMatD0=    1 NMtDS0=    0 NMtDT0=    0
         I1Cent=           4 NGrid=           0.
 Symmetry not used in FoFCou.
 Requested convergence on RMS density matrix=1.00D-08 within 128 cycles.
 Requested convergence on MAX density matrix=1.00D-06.
 Requested convergence on             energy=1.00D-06.
 No special actions if energy rises.
 Integral accuracy reduced to 1.0D-05 until final iterations.
 Initial convergence to 1.0D-05 achieved.  Increase integral accuracy.
 SCF Done:  E(RHF) =  -1416.59247941     A.U. after   16 cycles
             Convg  =    0.6408D-08             -V/T =  2.0010

 **********************************************************************

            Population analysis using the SCF density.

 **********************************************************************

 Alpha  occ. eigenvalues --  -91.98288 -20.52755 -15.61128 -15.57693 -15.57050
 Alpha  occ. eigenvalues --  -15.56082 -15.54921 -15.54850 -11.36192 -11.34450
 Alpha  occ. eigenvalues --  -11.30833 -11.28687 -11.28667 -11.27321 -11.26063
 Alpha  occ. eigenvalues --  -11.25694 -11.25340 -11.25334 -11.22994 -11.22786
 Alpha  occ. eigenvalues --  -11.22134 -11.21994 -11.21984 -11.21058  -8.99410
 Alpha  occ. eigenvalues --   -6.67677  -6.67561  -6.67382  -1.33628  -1.32687
 Alpha  occ. eigenvalues --   -1.31892  -1.25692  -1.23582  -1.22869  -1.19683
 Alpha  occ. eigenvalues --   -1.13183  -1.08796  -1.04321  -1.03426  -1.01686
 Alpha  occ. eigenvalues --   -0.99873  -0.97110  -0.93682  -0.90295  -0.88690
 Alpha  occ. eigenvalues --   -0.86180  -0.83035  -0.80907  -0.78738  -0.77938
 Alpha  occ. eigenvalues --   -0.73821  -0.73130  -0.70764  -0.69691  -0.69477
 Alpha  occ. eigenvalues --   -0.67313  -0.65841  -0.65203  -0.64071  -0.63979
 Alpha  occ. eigenvalues --   -0.62196  -0.61471  -0.60240  -0.59603  -0.58702
 Alpha  occ. eigenvalues --   -0.58632  -0.57664  -0.56781  -0.56305  -0.56028
 Alpha  occ. eigenvalues --   -0.55656  -0.54155  -0.53839  -0.53185  -0.52809
 Alpha  occ. eigenvalues --   -0.50854  -0.49381  -0.48837  -0.48018  -0.47207
 Alpha  occ. eigenvalues --   -0.46960  -0.45105  -0.43418  -0.42654  -0.40503
 Alpha  occ. eigenvalues --   -0.39390  -0.38842  -0.33532  -0.33159  -0.30117
 Alpha  occ. eigenvalues --   -0.27127
 Alpha virt. eigenvalues --    0.08740   0.13982   0.14714   0.15001   0.16525
 Alpha virt. eigenvalues --    0.18809   0.21177   0.22907   0.23848   0.24630
 Alpha virt. eigenvalues --    0.25907   0.26370   0.26837   0.27109   0.27483
 Alpha virt. eigenvalues --    0.27791   0.28989   0.29279   0.31054   0.32173
 Alpha virt. eigenvalues --    0.32702   0.33099   0.33354   0.34609   0.34689
 Alpha virt. eigenvalues --    0.34844   0.35548   0.36099   0.38169   0.38688
 Alpha virt. eigenvalues --    0.38797   0.39753   0.41147   0.42340   0.43072
 Alpha virt. eigenvalues --    0.44130   0.44845   0.46138   0.47670   0.48342
 Alpha virt. eigenvalues --    0.50933   0.52251   0.53055   0.53217   0.54268
 Alpha virt. eigenvalues --    0.55521   0.57195   0.57414   0.59087   0.59521
 Alpha virt. eigenvalues --    0.61316   0.62815   0.66864   0.67385   0.68511
 Alpha virt. eigenvalues --    0.69935   0.70239   0.72361   0.73650   0.73913
 Alpha virt. eigenvalues --    0.74516   0.75326   0.76550   0.76721   0.77802
 Alpha virt. eigenvalues --    0.78388   0.78971   0.79110   0.79613   0.81357
 Alpha virt. eigenvalues --    0.81790   0.82385   0.83036   0.83874   0.84394
 Alpha virt. eigenvalues --    0.84723   0.84985   0.86194   0.86874   0.88629
 Alpha virt. eigenvalues --    0.89523   0.90608   0.91381   0.92340   0.93529
 Alpha virt. eigenvalues --    0.93680   0.94155   0.95651   0.95824   0.96805
 Alpha virt. eigenvalues --    0.98128   0.98781   0.98928   1.00432   1.01723
 Alpha virt. eigenvalues --    1.02948   1.03984   1.04172   1.05323   1.06580
 Alpha virt. eigenvalues --    1.06933   1.07651   1.09014   1.09130   1.10273
 Alpha virt. eigenvalues --    1.10624   1.11587   1.12172   1.12250   1.12447
 Alpha virt. eigenvalues --    1.12837   1.13078   1.14081   1.14452   1.14735
 Alpha virt. eigenvalues --    1.15287   1.16504   1.17154   1.17784   1.17926
 Alpha virt. eigenvalues --    1.18156   1.18607   1.19567   1.19765   1.20539
 Alpha virt. eigenvalues --    1.20920   1.21830   1.22398   1.23050   1.23614
 Alpha virt. eigenvalues --    1.24084   1.24805   1.25230   1.25755   1.26734
 Alpha virt. eigenvalues --    1.27847   1.28293   1.28634   1.28887   1.30467
 Alpha virt. eigenvalues --    1.30615   1.31611   1.32474   1.33252   1.34932
 Alpha virt. eigenvalues --    1.36411   1.38548   1.41260   1.43200   1.43477
 Alpha virt. eigenvalues --    1.43969   1.44904   1.46142   1.47247   1.47624
 Alpha virt. eigenvalues --    1.49208   1.50971   1.52044   1.53825   1.56476
 Alpha virt. eigenvalues --    1.59297   1.60771   1.61941   1.62097   1.63541
 Alpha virt. eigenvalues --    1.65207   1.65882   1.67157   1.70011   1.71326
 Alpha virt. eigenvalues --    1.73966   1.74668   1.75057   1.76321   1.76923
 Alpha virt. eigenvalues --    1.77232   1.77765   1.79294   1.80397   1.80737
 Alpha virt. eigenvalues --    1.83847   1.84773   1.85768   1.88011   1.89615
 Alpha virt. eigenvalues --    1.90037   1.90956   1.92368   1.99972   2.01333
 Alpha virt. eigenvalues --    2.03555   2.05000   2.05357   2.06845   2.09198
 Alpha virt. eigenvalues --    2.09887   2.10712   2.12215   2.13257   2.13837
 Alpha virt. eigenvalues --    2.15003   2.15331   2.17857   2.18903   2.21490
 Alpha virt. eigenvalues --    2.22064   2.22777   2.23401   2.24484   2.26075
 Alpha virt. eigenvalues --    2.26871   2.27876   2.29360   2.30526   2.32775
 Alpha virt. eigenvalues --    2.34838   2.35371   2.36964   2.38900   2.40150
 Alpha virt. eigenvalues --    2.40844   2.42537   2.45858   2.46973   2.47943
 Alpha virt. eigenvalues --    2.48261   2.48649   2.49786   2.50564   2.52643
 Alpha virt. eigenvalues --    2.54284   2.55085   2.56704   2.57044   2.58352
 Alpha virt. eigenvalues --    2.58625   2.59476   2.61241   2.63166   2.64259
 Alpha virt. eigenvalues --    2.64620   2.65563   2.66936   2.67982   2.69354
 Alpha virt. eigenvalues --    2.71389   2.72465   2.73267   2.74900   2.77840
 Alpha virt. eigenvalues --    2.78469   2.80506   2.81747   2.83088   2.85738
 Alpha virt. eigenvalues --    2.86703   2.87395   2.92787   2.93248   2.94347
 Alpha virt. eigenvalues --    2.95660   2.95970   2.97937   2.98869   2.99934
 Alpha virt. eigenvalues --    3.01247   3.01893   3.02281   3.04444   3.06913
 Alpha virt. eigenvalues --    3.08362   3.11354   3.13336   3.14301   3.15803
 Alpha virt. eigenvalues --    3.21081   3.23366   3.25508   3.27317   3.29339
 Alpha virt. eigenvalues --    3.34603   3.39885   3.40866   3.51687   3.58763
 Alpha virt. eigenvalues --    3.60439   3.72432   3.86296   3.87100   4.15778
 Alpha virt. eigenvalues --    4.36179   4.38482   4.47078   4.50821   4.51687
 Alpha virt. eigenvalues --    4.53383   4.55252   4.56781   4.57857   4.58633
 Alpha virt. eigenvalues --    4.64793   4.67334   4.69922   4.71204   4.76361
 Alpha virt. eigenvalues --    4.77423   4.79913   4.80816   4.82463   4.91619
 Alpha virt. eigenvalues --    4.94705   5.08041   5.22097
          Condensed to atoms (all electrons):
              1          2          3          4          5          6
     1  N    6.910278  -0.079246   0.000000   0.000000   0.000000  -0.000002
     2  N   -0.079246   7.162335   0.000000   0.000000   0.000000   0.000000
     3  N    0.000000   0.000000   6.943026  -0.109546   0.000000  -0.102341
     4  N    0.000000   0.000000  -0.109546   7.379178   0.000000  -0.102903
     5  N    0.000000   0.000000   0.000000   0.000000   7.246730   0.000000
     6  N   -0.000002   0.000000  -0.102341  -0.102903   0.000000   7.060548
     7  C   -0.062746  -0.000056  -0.000003   0.000026   0.000000  -0.012611
     8  C    0.430237   0.003261   0.000021  -0.000007   0.000000  -0.002100
     9  C    0.537344   0.270414   0.000000   0.000000   0.000000  -0.000014
    10  C   -0.089518   0.002615  -0.000112  -0.000134   0.000000  -0.085495
    11  C    0.004750  -0.000030  -0.026832   0.002147   0.000000   0.506755
    12  C   -0.000122   0.000000  -0.051868   0.000447   0.000000  -0.072141
    13  C    0.000001   0.000000   0.488754   0.002031   0.000000  -0.013881
    14  C   -0.000002   0.000000   0.514578   0.321483   0.000000   0.496899
    15  C    0.000000   0.000000   0.002637   0.196704   0.000139   0.001890
    16  C    0.000000   0.000000  -0.000009  -0.049390   0.003554  -0.002776
    17  C    0.000000   0.000000  -0.000001   0.004696  -0.060219  -0.000303
    18  C    0.000000   0.000000   0.000000   0.000191   0.290895   0.000020
    19  C    0.000000   0.000000   0.000000   0.000000   0.265515   0.000000
    20  C    0.000000   0.000000   0.000000   0.000000   0.266558   0.000000
    21  C    0.000000   0.000000   0.000000   0.004306  -0.060989  -0.000039
    22  C    0.000000   0.000000  -0.000132  -0.058847   0.003700  -0.000235
    23  S   -0.081251  -0.067998  -0.000001   0.000002   0.000000   0.002242
    24  H    0.002922   0.000001   0.000012  -0.000163   0.000000   0.002795
    25  H   -0.001252  -0.000017   0.000000  -0.000001   0.000000   0.000558
    26  H    0.000451   0.000000   0.000000   0.000002  -0.000004  -0.000013
    27  H    0.002272   0.327085   0.000000   0.000000   0.000000   0.000000
    28  H    0.005170   0.318308   0.000000   0.000000   0.000000   0.000000
    29  H    0.000000   0.000000   0.006663   0.326252   0.000000   0.003788
    30  H   -0.000006   0.000000   0.002684   0.000015   0.000000   0.002467
    31  H    0.000000   0.000000  -0.042534  -0.000049   0.000000  -0.000567
    32  H    0.000000   0.000000  -0.000015  -0.003401  -0.000070   0.001771
    33  H    0.000000   0.000000   0.000000  -0.000104  -0.004001  -0.000007
    34  H    0.000000   0.000000   0.000000   0.000000  -0.036771   0.000000
    35  H    0.000000   0.000000   0.000000   0.000000  -0.044623   0.000000
    36  H    0.000000   0.000000   0.000000   0.000000  -0.057606   0.000000
    37  H    0.000000   0.000000   0.000000   0.000000  -0.036862   0.000000
    38  H    0.000000   0.000000   0.000000   0.000000  -0.057986   0.000000
    39  H    0.000000   0.000000   0.000000   0.000000  -0.044558   0.000000
    40  H    0.000000   0.000000   0.000000  -0.000114  -0.004170   0.000000
    41  H    0.000000   0.000000  -0.000025   0.000166  -0.000073  -0.000027
    42  H   -0.000589   0.008205   0.000000   0.000000   0.000000   0.000000
    43  O   -0.000102  -0.013704   0.000000   0.000000   0.000000   0.000000
    44  H    0.000006   0.000790   0.000000   0.000000   0.000000   0.000000
              7          8          9         10         11         12
     1  N   -0.062746   0.430237   0.537344  -0.089518   0.004750  -0.000122
     2  N   -0.000056   0.003261   0.270414   0.002615  -0.000030   0.000000
     3  N   -0.000003   0.000021   0.000000  -0.000112  -0.026832  -0.051868
     4  N    0.000026  -0.000007   0.000000  -0.000134   0.002147   0.000447
     5  N    0.000000   0.000000   0.000000   0.000000   0.000000   0.000000
     6  N   -0.012611  -0.002100  -0.000014  -0.085495   0.506755  -0.072141
     7  C    5.097369   0.354635   0.006540  -0.056511   0.000399   0.000109
     8  C    0.354635   4.575158  -0.090346   0.592432  -0.009954   0.002936
     9  C    0.006540  -0.090346   4.661902  -0.053106   0.002594  -0.000038
    10  C   -0.056511   0.592432  -0.053106   5.491643   0.366985  -0.073115
    11  C    0.000399  -0.009954   0.002594   0.366985   4.381086   0.509609
    12  C    0.000109   0.002936  -0.000038  -0.073115   0.509609   5.243861
    13  C    0.000002  -0.000092  -0.000003   0.003325  -0.045116   0.514227
    14  C   -0.000348   0.000081   0.000002   0.005107  -0.049499  -0.028143
    15  C   -0.000127  -0.000031   0.000000   0.000025   0.000099   0.000007
    16  C   -0.000440  -0.000007   0.000000   0.000060  -0.000175  -0.000004
    17  C   -0.000149   0.000009   0.000000   0.000003   0.000000   0.000000
    18  C   -0.000003   0.000001   0.000000   0.000000   0.000000   0.000000
    19  C    0.000000   0.000000   0.000000   0.000000   0.000000   0.000000
    20  C    0.000000   0.000000   0.000000   0.000000   0.000000   0.000000
    21  C    0.000003   0.000000   0.000000   0.000000   0.000000   0.000000
    22  C   -0.000041   0.000000   0.000000   0.000001  -0.000012  -0.000001
    23  S    0.002609  -0.081383   0.339702   0.276778  -0.041863   0.000145
    24  H    0.391672  -0.030876  -0.000128  -0.004546   0.000392   0.000075
    25  H    0.383253  -0.039462   0.000067   0.004313  -0.000280   0.000003
    26  H    0.388474  -0.034762  -0.000172  -0.003656   0.000961   0.000016
    27  H    0.000002  -0.000152  -0.024918   0.000045  -0.000001   0.000000
    28  H   -0.000020   0.000309  -0.022537  -0.000073   0.000000   0.000000
    29  H    0.000000   0.000000   0.000000   0.000006  -0.000100   0.000018
    30  H   -0.000001   0.000022   0.000017  -0.000809  -0.025770   0.374178
    31  H    0.000000   0.000001   0.000000  -0.000054   0.002436  -0.051687
    32  H    0.000010   0.000001   0.000000  -0.000025  -0.000008   0.000008
    33  H    0.000000   0.000000   0.000000   0.000000   0.000000   0.000000
    34  H    0.000000   0.000000   0.000000   0.000000   0.000000   0.000000
    35  H    0.000000   0.000000   0.000000   0.000000   0.000000   0.000000
    36  H    0.000000   0.000000   0.000000   0.000000   0.000000   0.000000
    37  H    0.000000   0.000000   0.000000   0.000000   0.000000   0.000000
    38  H    0.000000   0.000000   0.000000   0.000000   0.000000   0.000000
    39  H    0.000000   0.000000   0.000000   0.000000   0.000000   0.000000
    40  H    0.000000   0.000000   0.000000   0.000000   0.000000   0.000000
    41  H    0.000000   0.000000   0.000000   0.000000   0.000000   0.000000
    42  H    0.000001   0.000018  -0.000620   0.000029   0.000000   0.000000
    43  O    0.000000   0.000009   0.001919  -0.000017   0.000000   0.000000
    44  H    0.000000   0.000002   0.000447  -0.000008   0.000000   0.000000
             13         14         15         16         17         18
     1  N    0.000001  -0.000002   0.000000   0.000000   0.000000   0.000000
     2  N    0.000000   0.000000   0.000000   0.000000   0.000000   0.000000
     3  N    0.488754   0.514578   0.002637  -0.000009  -0.000001   0.000000
     4  N    0.002031   0.321483   0.196704  -0.049390   0.004696   0.000191
     5  N    0.000000   0.000000   0.000139   0.003554  -0.060219   0.290895
     6  N   -0.013881   0.496899   0.001890  -0.002776  -0.000303   0.000020
     7  C    0.000002  -0.000348  -0.000127  -0.000440  -0.000149  -0.000003
     8  C   -0.000092   0.000081  -0.000031  -0.000007   0.000009   0.000001
     9  C   -0.000003   0.000002   0.000000   0.000000   0.000000   0.000000
    10  C    0.003325   0.005107   0.000025   0.000060   0.000003   0.000000
    11  C   -0.045116  -0.049499   0.000099  -0.000175   0.000000   0.000000
    12  C    0.514227  -0.028143   0.000007  -0.000004   0.000000   0.000000
    13  C    4.613273  -0.071315  -0.000067   0.000001   0.000000   0.000000
    14  C   -0.071315   3.993093  -0.028417  -0.001842  -0.000067   0.000017
    15  C   -0.000067  -0.028417   4.554977   0.588142  -0.045615  -0.023481
    16  C    0.000001  -0.001842   0.588142   4.859986   0.530987  -0.032954
    17  C    0.000000  -0.000067  -0.045615   0.530987   5.024170   0.563279
    18  C    0.000000   0.000017  -0.023481  -0.032954   0.563279   4.420832
    19  C    0.000000   0.000000   0.000010  -0.000251  -0.009679  -0.046689
    20  C    0.000000   0.000000   0.000010  -0.000068   0.002413  -0.047426
    21  C    0.000000  -0.000043  -0.049213  -0.039751  -0.039764   0.574842
    22  C    0.000004   0.001215   0.593054  -0.047189  -0.041132  -0.034129
    23  S    0.000298  -0.000108   0.000000   0.000000   0.000000   0.000000
    24  H   -0.000006   0.000235   0.000753   0.000065  -0.000132  -0.000029
    25  H    0.000000   0.000016   0.000006   0.000021   0.000005   0.000000
    26  H    0.000000  -0.000121  -0.000051   0.000934   0.001125   0.000034
    27  H    0.000000   0.000000   0.000000   0.000000   0.000000   0.000000
    28  H    0.000000   0.000000   0.000000   0.000000   0.000000   0.000000
    29  H    0.000364  -0.021821  -0.023404   0.001657  -0.000011  -0.000001
    30  H   -0.021362   0.000456   0.000000   0.000000   0.000000   0.000000
    31  H    0.406764   0.003581   0.000003   0.000000   0.000000   0.000000
    32  H   -0.000002   0.002264  -0.024203   0.376573  -0.030593   0.001595
    33  H    0.000000  -0.000003   0.001668  -0.025881   0.380077  -0.030799
    34  H    0.000000   0.000000   0.000000   0.000007   0.000466   0.003340
    35  H    0.000000   0.000000  -0.000007   0.000162  -0.001265  -0.003475
    36  H    0.000000   0.000000  -0.000006  -0.000233   0.002143   0.002095
    37  H    0.000000   0.000000   0.000000   0.000002  -0.000052   0.003289
    38  H    0.000000   0.000000  -0.000005  -0.000019   0.000214   0.002018
    39  H    0.000000   0.000000  -0.000009   0.000006  -0.000061  -0.003255
    40  H    0.000000   0.000000   0.001764   0.000281   0.002818  -0.030014
    41  H    0.000000   0.000212  -0.033282   0.003303   0.000254   0.001616
    42  H    0.000000   0.000000   0.000000   0.000000   0.000000   0.000000
    43  O    0.000000   0.000000   0.000000   0.000000   0.000000   0.000000
    44  H    0.000000   0.000000   0.000000   0.000000   0.000000   0.000000
             19         20         21         22         23         24
     1  N    0.000000   0.000000   0.000000   0.000000  -0.081251   0.002922
     2  N    0.000000   0.000000   0.000000   0.000000  -0.067998   0.000001
     3  N    0.000000   0.000000   0.000000  -0.000132  -0.000001   0.000012
     4  N    0.000000   0.000000   0.004306  -0.058847   0.000002  -0.000163
     5  N    0.265515   0.266558  -0.060989   0.003700   0.000000   0.000000
     6  N    0.000000   0.000000  -0.000039  -0.000235   0.002242   0.002795
     7  C    0.000000   0.000000   0.000003  -0.000041   0.002609   0.391672
     8  C    0.000000   0.000000   0.000000   0.000000  -0.081383  -0.030876
     9  C    0.000000   0.000000   0.000000   0.000000   0.339702  -0.000128
    10  C    0.000000   0.000000   0.000000   0.000001   0.276778  -0.004546
    11  C    0.000000   0.000000   0.000000  -0.000012  -0.041863   0.000392
    12  C    0.000000   0.000000   0.000000  -0.000001   0.000145   0.000075
    13  C    0.000000   0.000000   0.000000   0.000004   0.000298  -0.000006
    14  C    0.000000   0.000000  -0.000043   0.001215  -0.000108   0.000235
    15  C    0.000010   0.000010  -0.049213   0.593054   0.000000   0.000753
    16  C   -0.000251  -0.000068  -0.039751  -0.047189   0.000000   0.000065
    17  C   -0.009679   0.002413  -0.039764  -0.041132   0.000000  -0.000132
    18  C   -0.046689  -0.047426   0.574842  -0.034129   0.000000  -0.000029
    19  C    4.932787  -0.051540   0.002278  -0.000074   0.000000   0.000000
    20  C   -0.051540   4.932464  -0.009847  -0.000282   0.000000   0.000000
    21  C    0.002278  -0.009847   5.012819   0.528022   0.000000   0.000013
    22  C   -0.000074  -0.000282   0.528022   4.900906   0.000000   0.000283
    23  S    0.000000   0.000000   0.000000   0.000000  15.364813   0.000095
    24  H    0.000000   0.000000   0.000013   0.000283   0.000095   0.471548
    25  H    0.000000   0.000000  -0.000001   0.000000  -0.000045  -0.023524
    26  H   -0.000001   0.000000  -0.000013  -0.000043   0.000014  -0.022315
    27  H    0.000000   0.000000   0.000000   0.000000   0.000490   0.000000
    28  H    0.000000   0.000000   0.000000   0.000000   0.003347   0.000000
    29  H    0.000000   0.000000   0.000063  -0.002029   0.000000   0.000001
    30  H    0.000000   0.000000   0.000000   0.000000   0.000259  -0.000001
    31  H    0.000000   0.000000   0.000000   0.000000  -0.000013   0.000000
    32  H   -0.000005   0.000002   0.000208   0.003501   0.000000  -0.000005
    33  H    0.000403  -0.000056   0.002782   0.000357   0.000000  -0.000001
    34  H    0.404119  -0.007464  -0.000048   0.000002   0.000000   0.000000
    35  H    0.404764   0.003929  -0.000092   0.000005   0.000000   0.000000
    36  H    0.391180   0.000693   0.000310  -0.000018   0.000000   0.000000
    37  H   -0.007456   0.404313   0.000488   0.000007   0.000000   0.000000
    38  H    0.000604   0.391059   0.002154  -0.000212   0.000000   0.000000
    39  H    0.003976   0.404626  -0.001047   0.000127   0.000000   0.000000
    40  H   -0.000059   0.000477   0.379592  -0.025960   0.000000   0.000000
    41  H    0.000002  -0.000004  -0.027046   0.376825   0.000000   0.000000
    42  H    0.000000   0.000000   0.000000   0.000000  -0.000701   0.000000
    43  O    0.000000   0.000000   0.000000   0.000000   0.001470   0.000000
    44  H    0.000000   0.000000   0.000000   0.000000   0.000027   0.000000
             25         26         27         28         29         30
     1  N   -0.001252   0.000451   0.002272   0.005170   0.000000  -0.000006
     2  N   -0.000017   0.000000   0.327085   0.318308   0.000000   0.000000
     3  N    0.000000   0.000000   0.000000   0.000000   0.006663   0.002684
     4  N   -0.000001   0.000002   0.000000   0.000000   0.326252   0.000015
     5  N    0.000000  -0.000004   0.000000   0.000000   0.000000   0.000000
     6  N    0.000558  -0.000013   0.000000   0.000000   0.003788   0.002467
     7  C    0.383253   0.388474   0.000002  -0.000020   0.000000  -0.000001
     8  C   -0.039462  -0.034762  -0.000152   0.000309   0.000000   0.000022
     9  C    0.000067  -0.000172  -0.024918  -0.022537   0.000000   0.000017
    10  C    0.004313  -0.003656   0.000045  -0.000073   0.000006  -0.000809
    11  C   -0.000280   0.000961  -0.000001   0.000000  -0.000100  -0.025770
    12  C    0.000003   0.000016   0.000000   0.000000   0.000018   0.374178
    13  C    0.000000   0.000000   0.000000   0.000000   0.000364  -0.021362
    14  C    0.000016  -0.000121   0.000000   0.000000  -0.021821   0.000456
    15  C    0.000006  -0.000051   0.000000   0.000000  -0.023404   0.000000
    16  C    0.000021   0.000934   0.000000   0.000000   0.001657   0.000000
    17  C    0.000005   0.001125   0.000000   0.000000  -0.000011   0.000000
    18  C    0.000000   0.000034   0.000000   0.000000  -0.000001   0.000000
    19  C    0.000000  -0.000001   0.000000   0.000000   0.000000   0.000000
    20  C    0.000000   0.000000   0.000000   0.000000   0.000000   0.000000
    21  C   -0.000001  -0.000013   0.000000   0.000000   0.000063   0.000000
    22  C    0.000000  -0.000043   0.000000   0.000000  -0.002029   0.000000
    23  S   -0.000045   0.000014   0.000490   0.003347   0.000000   0.000259
    24  H   -0.023524  -0.022315   0.000000   0.000000   0.000001  -0.000001
    25  H    0.519384  -0.025471   0.000000   0.000008   0.000000   0.000000
    26  H   -0.025471   0.500546   0.000000   0.000000   0.000000   0.000000
    27  H    0.000000   0.000000   0.308406  -0.014677   0.000000   0.000000
    28  H    0.000008   0.000000  -0.014677   0.301174   0.000000   0.000000
    29  H    0.000000   0.000000   0.000000   0.000000   0.307606  -0.000001
    30  H    0.000000   0.000000   0.000000   0.000000  -0.000001   0.444329
    31  H    0.000000   0.000000   0.000000   0.000000  -0.000034  -0.000097
    32  H    0.000000   0.000062   0.000000   0.000000  -0.000066   0.000000
    33  H    0.000000   0.000039   0.000000   0.000000   0.000002   0.000000
    34  H    0.000000   0.000000   0.000000   0.000000   0.000000   0.000000
    35  H    0.000000   0.000004   0.000000   0.000000   0.000000   0.000000
    36  H    0.000000   0.000000   0.000000   0.000000   0.000000   0.000000
    37  H    0.000000   0.000000   0.000000   0.000000   0.000000   0.000000
    38  H    0.000000   0.000000   0.000000   0.000000   0.000000   0.000000
    39  H    0.000000   0.000000   0.000000   0.000000   0.000000   0.000000
    40  H    0.000000   0.000000   0.000000   0.000000  -0.000001   0.000000
    41  H    0.000000   0.000000   0.000000   0.000000   0.001185   0.000000
    42  H    0.000000   0.000000  -0.000522   0.000097   0.000000   0.000000
    43  O    0.000000   0.000000   0.000150   0.000148   0.000000   0.000000
    44  H    0.000000   0.000000  -0.000008  -0.000008   0.000000   0.000000
             31         32         33         34         35         36
     1  N    0.000000   0.000000   0.000000   0.000000   0.000000   0.000000
     2  N    0.000000   0.000000   0.000000   0.000000   0.000000   0.000000
     3  N   -0.042534  -0.000015   0.000000   0.000000   0.000000   0.000000
     4  N   -0.000049  -0.003401  -0.000104   0.000000   0.000000   0.000000
     5  N    0.000000  -0.000070  -0.004001  -0.036771  -0.044623  -0.057606
     6  N   -0.000567   0.001771  -0.000007   0.000000   0.000000   0.000000
     7  C    0.000000   0.000010   0.000000   0.000000   0.000000   0.000000
     8  C    0.000001   0.000001   0.000000   0.000000   0.000000   0.000000
     9  C    0.000000   0.000000   0.000000   0.000000   0.000000   0.000000
    10  C   -0.000054  -0.000025   0.000000   0.000000   0.000000   0.000000
    11  C    0.002436  -0.000008   0.000000   0.000000   0.000000   0.000000
    12  C   -0.051687   0.000008   0.000000   0.000000   0.000000   0.000000
    13  C    0.406764  -0.000002   0.000000   0.000000   0.000000   0.000000
    14  C    0.003581   0.002264  -0.000003   0.000000   0.000000   0.000000
    15  C    0.000003  -0.024203   0.001668   0.000000  -0.000007  -0.000006
    16  C    0.000000   0.376573  -0.025881   0.000007   0.000162  -0.000233
    17  C    0.000000  -0.030593   0.380077   0.000466  -0.001265   0.002143
    18  C    0.000000   0.001595  -0.030799   0.003340  -0.003475   0.002095
    19  C    0.000000  -0.000005   0.000403   0.404119   0.404764   0.391180
    20  C    0.000000   0.000002  -0.000056  -0.007464   0.003929   0.000693
    21  C    0.000000   0.000208   0.002782  -0.000048  -0.000092   0.000310
    22  C    0.000000   0.003501   0.000357   0.000002   0.000005  -0.000018
    23  S   -0.000013   0.000000   0.000000   0.000000   0.000000   0.000000
    24  H    0.000000  -0.000005  -0.000001   0.000000   0.000000   0.000000
    25  H    0.000000   0.000000   0.000000   0.000000   0.000000   0.000000
    26  H    0.000000   0.000062   0.000039   0.000000   0.000004   0.000000
    27  H    0.000000   0.000000   0.000000   0.000000   0.000000   0.000000
    28  H    0.000000   0.000000   0.000000   0.000000   0.000000   0.000000
    29  H   -0.000034  -0.000066   0.000002   0.000000   0.000000   0.000000
    30  H   -0.000097   0.000000   0.000000   0.000000   0.000000   0.000000
    31  H    0.468226   0.000000   0.000000   0.000000   0.000000   0.000000
    32  H    0.000000   0.457005  -0.001911   0.000000   0.000000  -0.000002
    33  H    0.000000  -0.001911   0.474617   0.000162  -0.002092  -0.000156
    34  H    0.000000   0.000000   0.000162   0.514767  -0.025294  -0.030467
    35  H    0.000000   0.000000  -0.002092  -0.025294   0.535114  -0.044059
    36  H    0.000000  -0.000002  -0.000156  -0.030467  -0.044059   0.575731
    37  H    0.000000   0.000000   0.000000   0.001864   0.000249  -0.000066
    38  H    0.000000   0.000000   0.000004  -0.000051  -0.000357   0.002378
    39  H    0.000000   0.000000  -0.000001   0.000240   0.000018  -0.000354
    40  H    0.000000   0.000011  -0.000123   0.000000  -0.000003   0.000008
    41  H    0.000000  -0.000132   0.000013   0.000000   0.000000   0.000000
    42  H    0.000000   0.000000   0.000000   0.000000   0.000000   0.000000
    43  O    0.000000   0.000000   0.000000   0.000000   0.000000   0.000000
    44  H    0.000000   0.000000   0.000000   0.000000   0.000000   0.000000
             37         38         39         40         41         42
     1  N    0.000000   0.000000   0.000000   0.000000   0.000000  -0.000589
     2  N    0.000000   0.000000   0.000000   0.000000   0.000000   0.008205
     3  N    0.000000   0.000000   0.000000   0.000000  -0.000025   0.000000
     4  N    0.000000   0.000000   0.000000  -0.000114   0.000166   0.000000
     5  N   -0.036862  -0.057986  -0.044558  -0.004170  -0.000073   0.000000
     6  N    0.000000   0.000000   0.000000   0.000000  -0.000027   0.000000
     7  C    0.000000   0.000000   0.000000   0.000000   0.000000   0.000001
     8  C    0.000000   0.000000   0.000000   0.000000   0.000000   0.000018
     9  C    0.000000   0.000000   0.000000   0.000000   0.000000  -0.000620
    10  C    0.000000   0.000000   0.000000   0.000000   0.000000   0.000029
    11  C    0.000000   0.000000   0.000000   0.000000   0.000000   0.000000
    12  C    0.000000   0.000000   0.000000   0.000000   0.000000   0.000000
    13  C    0.000000   0.000000   0.000000   0.000000   0.000000   0.000000
    14  C    0.000000   0.000000   0.000000   0.000000   0.000212   0.000000
    15  C    0.000000  -0.000005  -0.000009   0.001764  -0.033282   0.000000
    16  C    0.000002  -0.000019   0.000006   0.000281   0.003303   0.000000
    17  C   -0.000052   0.000214  -0.000061   0.002818   0.000254   0.000000
    18  C    0.003289   0.002018  -0.003255  -0.030014   0.001616   0.000000
    19  C   -0.007456   0.000604   0.003976  -0.000059   0.000002   0.000000
    20  C    0.404313   0.391059   0.404626   0.000477  -0.000004   0.000000
    21  C    0.000488   0.002154  -0.001047   0.379592  -0.027046   0.000000
    22  C    0.000007  -0.000212   0.000127  -0.025960   0.376825   0.000000
    23  S    0.000000   0.000000   0.000000   0.000000   0.000000  -0.000701
    24  H    0.000000   0.000000   0.000000   0.000000   0.000000   0.000000
    25  H    0.000000   0.000000   0.000000   0.000000   0.000000   0.000000
    26  H    0.000000   0.000000   0.000000   0.000000   0.000000   0.000000
    27  H    0.000000   0.000000   0.000000   0.000000   0.000000  -0.000522
    28  H    0.000000   0.000000   0.000000   0.000000   0.000000   0.000097
    29  H    0.000000   0.000000   0.000000  -0.000001   0.001185   0.000000
    30  H    0.000000   0.000000   0.000000   0.000000   0.000000   0.000000
    31  H    0.000000   0.000000   0.000000   0.000000   0.000000   0.000000
    32  H    0.000000   0.000000   0.000000   0.000011  -0.000132   0.000000
    33  H    0.000000   0.000004  -0.000001  -0.000123   0.000013   0.000000
    34  H    0.001864  -0.000051   0.000240   0.000000   0.000000   0.000000
    35  H    0.000249  -0.000357   0.000018  -0.000003   0.000000   0.000000
    36  H   -0.000066   0.002378  -0.000354   0.000008   0.000000   0.000000
    37  H    0.514227  -0.030926  -0.024849   0.000166   0.000000   0.000000
    38  H   -0.030926   0.578130  -0.044215   0.000023  -0.000002   0.000000
    39  H   -0.024849  -0.044215   0.534238  -0.002372   0.000001   0.000000
    40  H    0.000166   0.000023  -0.002372   0.474795  -0.002114   0.000000
    41  H    0.000000  -0.000002   0.000001  -0.002114   0.472511   0.000000
    42  H    0.000000   0.000000   0.000000   0.000000   0.000000   0.255900
    43  O    0.000000   0.000000   0.000000   0.000000   0.000000   0.261639
    44  H    0.000000   0.000000   0.000000   0.000000   0.000000  -0.018260
             43         44
     1  N   -0.000102   0.000006
     2  N   -0.013704   0.000790
     3  N    0.000000   0.000000
     4  N    0.000000   0.000000
     5  N    0.000000   0.000000
     6  N    0.000000   0.000000
     7  C    0.000000   0.000000
     8  C    0.000009   0.000002
     9  C    0.001919   0.000447
    10  C   -0.000017  -0.000008
    11  C    0.000000   0.000000
    12  C    0.000000   0.000000
    13  C    0.000000   0.000000
    14  C    0.000000   0.000000
    15  C    0.000000   0.000000
    16  C    0.000000   0.000000
    17  C    0.000000   0.000000
    18  C    0.000000   0.000000
    19  C    0.000000   0.000000
    20  C    0.000000   0.000000
    21  C    0.000000   0.000000
    22  C    0.000000   0.000000
    23  S    0.001470   0.000027
    24  H    0.000000   0.000000
    25  H    0.000000   0.000000
    26  H    0.000000   0.000000
    27  H    0.000150  -0.000008
    28  H    0.000148  -0.000008
    29  H    0.000000   0.000000
    30  H    0.000000   0.000000
    31  H    0.000000   0.000000
    32  H    0.000000   0.000000
    33  H    0.000000   0.000000
    34  H    0.000000   0.000000
    35  H    0.000000   0.000000
    36  H    0.000000   0.000000
    37  H    0.000000   0.000000
    38  H    0.000000   0.000000
    39  H    0.000000   0.000000
    40  H    0.000000   0.000000
    41  H    0.000000   0.000000
    42  H    0.261639  -0.018260
    43  O    8.409106   0.268837
    44  H    0.268837   0.322305
 Mulliken atomic charges:
              1
     1  N   -0.578596
     2  N   -0.931963
     3  N   -0.624958
     4  N   -0.912987
     5  N   -0.669160
     6  N   -0.684278
     7  C   -0.492047
     8  C    0.330039
     9  C    0.370936
    10  C   -0.376188
    11  C    0.421428
    12  C   -0.368520
    13  C    0.122798
    14  C    0.862491
    15  C    0.286032
    16  C   -0.164750
    17  C   -0.283615
    18  C    0.388195
    19  C   -0.289884
    20  C   -0.289858
    21  C   -0.279987
    22  C   -0.197670
    23  S    0.281070
    24  H    0.210865
    25  H    0.182418
    26  H    0.193960
    27  H    0.401828
    28  H    0.408756
    29  H    0.399863
    30  H    0.223620
    31  H    0.214023
    32  H    0.217430
    33  H    0.205011
    34  H    0.175128
    35  H    0.177025
    36  H    0.158429
    37  H    0.175607
    38  H    0.157189
    39  H    0.177489
    40  H    0.204992
    41  H    0.206619
    42  H    0.494803
    43  O   -0.929453
    44  H    0.425870
 Sum of Mulliken atomic charges =   0.00000
 Mulliken charges with hydrogens summed into heavy atoms:
              1
     1  N   -0.578596
     2  N   -0.121379
     3  N   -0.624958
     4  N   -0.513123
     5  N   -0.669160
     6  N   -0.684278
     7  C    0.095197
     8  C    0.330039
     9  C    0.370936
    10  C   -0.376188
    11  C    0.421428
    12  C   -0.144900
    13  C    0.336821
    14  C    0.862491
    15  C    0.286032
    16  C    0.052680
    17  C   -0.078604
    18  C    0.388195
    19  C    0.220697
    20  C    0.220427
    21  C   -0.074995
    22  C    0.008949
    23  S    0.281070
    43  O   -0.008780
 Sum of Mulliken charges with hydrogens summed into heavy atoms =   0.00000
 Electronic spatial extent (au):  <R**2>=          12511.0163
 Charge=              0.0000 electrons
 Dipole moment (field-independent basis, Debye):
    X=              2.9756    Y=             -1.3059    Z=              2.1779  Tot=              3.9119
 Quadrupole moment (field-independent basis, Debye-Ang):
   XX=           -143.0825   YY=           -142.5842   ZZ=           -149.4262
   XY=             -6.4656   XZ=            -20.7709   YZ=            -11.8714
 Traceless Quadrupole moment (field-independent basis, Debye-Ang):
   XX=              1.9485   YY=              2.4467   ZZ=             -4.3952
   XY=             -6.4656   XZ=            -20.7709   YZ=            -11.8714
 Octapole moment (field-independent basis, Debye-Ang**2):
  XXX=            402.2806  YYY=             16.4800  ZZZ=             46.7050  XYY=             29.5081
  XXY=             15.7598  XXZ=            160.4631  XZZ=             83.2072  YZZ=             17.4992
  YYZ=             43.7494  XYZ=             46.4023
 Hexadecapole moment (field-independent basis, Debye-Ang**3):
 XXXX=         -13143.1575 YYYY=          -3447.8299 ZZZZ=           -717.8131 XXXY=           -998.0771
 XXXZ=          -1647.5418 YYYX=           -258.4118 YYYZ=           -251.2405 ZZZX=           -369.7412
 ZZZY=           -149.6062 XXYY=          -2396.2578 XXZZ=          -2403.7295 YYZZ=           -764.1209
 XXYZ=           -555.1258 YYXZ=           -292.9405 ZZXY=           -194.5253
 N-N= 2.106969270441D+03 E-N=-7.541963842009D+03  KE= 1.415237943037D+03
 Calling FoFJK, ICntrl=      2127 FMM=F ISym2X=0 I1Cent= 0 IOpClX= 0 NMat=1 NMatS=1 NMatT=0.
 -------------------------------------------------------------------
 Center     Atomic                   Forces (Hartrees/Bohr)
 Number     Number              X              Y              Z
 -------------------------------------------------------------------
      1        7          -0.004428483   -0.000830964    0.000038521
      2        7          -0.003698989   -0.003357208   -0.001669248
      3        7          -0.000929312   -0.000347488   -0.000071078
      4        7          -0.000699352   -0.000026214   -0.000072552
      5        7          -0.000244023    0.000239865    0.000033915
      6        7          -0.001013776   -0.000942168   -0.000084767
      7        6           0.000101042   -0.000127475    0.000062008
      8        6           0.001439483    0.001736750   -0.000048010
      9        6           0.009421664    0.007087794    0.003144427
     10        6          -0.001311655   -0.002579784   -0.000159710
     11        6           0.000732808    0.002795529    0.000209696
     12        6          -0.000123983   -0.001647418   -0.000144158
     13        6           0.000788982    0.000945618    0.000074161
     14        6           0.001231855    0.000378773    0.000117260
     15        6           0.000161850   -0.000229608    0.000039945
     16        6          -0.000018905    0.000029887   -0.000026084
     17        6          -0.000094782   -0.000043107    0.000033999
     18        6           0.000229615   -0.000224289    0.000009316
     19        6           0.000027536   -0.000045674    0.000088136
     20        6           0.000105597    0.000021835   -0.000083668
     21        6          -0.000076435    0.000078242   -0.000071411
     22        6           0.000025069    0.000004016   -0.000073502
     23       16           0.000772233   -0.001045894   -0.000395262
     24        1          -0.000048655   -0.000022653    0.000019345
     25        1           0.000115617   -0.000017370   -0.000023563
     26        1          -0.000001826    0.000009885   -0.000079017
     27        1          -0.000218018   -0.000343196    0.002302896
     28        1           0.000496970   -0.001359573    0.001569295
     29        1           0.000011548    0.000058694    0.000036167
     30        1          -0.000070277    0.000107232   -0.000023553
     31        1           0.000016394   -0.000098409    0.000001138
     32        1           0.000023861    0.000010249    0.000064624
     33        1           0.000022373    0.000019148    0.000011161
     34        1          -0.000021317    0.000015786    0.000005879
     35        1           0.000003108   -0.000019102   -0.000000138
     36        1          -0.000005579   -0.000010700   -0.000032400
     37        1          -0.000017230    0.000019584   -0.000004360
     38        1          -0.000022420   -0.000028755    0.000006993
     39        1           0.000004736   -0.000011403   -0.000001548
     40        1          -0.000006293    0.000010905    0.000018800
     41        1           0.000027256    0.000006521    0.000002710
     42        1           0.000503653   -0.001729902    0.000521165
     43        8          -0.002609772    0.001625310   -0.005497692
     44        1          -0.000602172   -0.000113270    0.000150165
 -------------------------------------------------------------------
 Cartesian Forces:  Max     0.009421664 RMS     0.001467086
 -----------------------------------------------------------------------------------------------
                       Internal Coordinate Forces (Hartree/Bohr or radian)
  Cent   Atom   N1       Length/X         N2         Alpha/Y        N3         Beta/Z          J
 -----------------------------------------------------------------------------------------------
      1  N           -0.004428(     1)     -0.000831(    48)      0.000039(    95)
      2  N           -0.007412(     2)     -0.004365(    49)     -0.006556(    96)
      3  N           -0.000929(     3)     -0.000347(    50)     -0.000071(    97)
      4  N           -0.000699(     4)     -0.000026(    51)     -0.000073(    98)
      5  N           -0.000244(     5)      0.000240(    52)      0.000034(    99)
      6  N           -0.001014(     6)     -0.000942(    53)     -0.000085(   100)
      7  C            0.000101(     7)     -0.000127(    54)      0.000062(   101)
      8  C            0.001439(     8)      0.001737(    55)     -0.000048(   102)
      9  C            0.009422(     9)      0.007088(    56)      0.003144(   103)
     10  C           -0.001312(    10)     -0.002580(    57)     -0.000160(   104)
     11  C            0.000733(    11)      0.002796(    58)      0.000210(   105)
     12  C           -0.000124(    12)     -0.001647(    59)     -0.000144(   106)
     13  C            0.000789(    13)      0.000946(    60)      0.000074(   107)
     14  C            0.001232(    14)      0.000379(    61)      0.000117(   108)
     15  C            0.000162(    15)     -0.000230(    62)      0.000040(   109)
     16  C           -0.000019(    16)      0.000030(    63)     -0.000026(   110)
     17  C           -0.000095(    17)     -0.000043(    64)      0.000034(   111)
     18  C            0.000230(    18)     -0.000224(    65)      0.000009(   112)
     19  C            0.000028(    19)     -0.000046(    66)      0.000088(   113)
     20  C            0.000106(    20)      0.000022(    67)     -0.000084(   114)
     21  C           -0.000076(    21)      0.000078(    68)     -0.000071(   115)
     22  C            0.000025(    22)      0.000004(    69)     -0.000074(   116)
     23  S            0.000772(    23)     -0.001046(    70)     -0.000395(   117)
     24  H           -0.000049(    24)     -0.000023(    71)      0.000019(   118)
     25  H            0.000116(    25)     -0.000017(    72)     -0.000024(   119)
     26  H           -0.000002(    26)      0.000010(    73)     -0.000079(   120)
     27  H           -0.000218(    27)     -0.000343(    74)      0.002303(   121)
     28  H            0.000497(    28)     -0.001360(    75)      0.001569(   122)
     29  H            0.000012(    29)      0.000059(    76)      0.000036(   123)
     30  H           -0.000070(    30)      0.000107(    77)     -0.000024(   124)
     31  H            0.000016(    31)     -0.000098(    78)      0.000001(   125)
     32  H            0.000024(    32)      0.000010(    79)      0.000065(   126)
     33  H            0.000022(    33)      0.000019(    80)      0.000011(   127)
     34  H           -0.000021(    34)      0.000016(    81)      0.000006(   128)
     35  H            0.000003(    35)     -0.000019(    82)      0.000000(   129)
     36  H           -0.000006(    36)     -0.000011(    83)     -0.000032(   130)
     37  H           -0.000017(    37)      0.000020(    84)     -0.000004(   131)
     38  H           -0.000022(    38)     -0.000029(    85)      0.000007(   132)
     39  H            0.000005(    39)     -0.000011(    86)     -0.000002(   133)
     40  H           -0.000006(    40)      0.000011(    87)      0.000019(   134)
     41  H            0.000027(    41)      0.000007(    88)      0.000003(   135)
         X            0.000828(    42)      0.000857(    89)     -0.000285(   136)
         X            0.000176(    43)     -0.000067(    90)      0.000346(   137)
     42  H        2   0.005432(    44)     43  -0.001117(    91)     42   0.003473(   138)     0
         X       44   0.000000(    45)      2   0.001387(    92)     43   0.000172(   139)     0
     43  O       44   0.006388(    46)     45   0.001387(    93)     43   0.000200(   140)     0
     44  H       46  -0.000560(    47)     44   0.000519(    94)     45   0.000023(   141)     0
 -----------------------------------------------------------------------------------------------
 Internal  Forces:  Max     0.009421664 RMS     0.001724924

 GradGradGradGradGradGradGradGradGradGradGradGradGradGradGradGradGradGrad
 Berny optimization.
 Search for a local minimum.
 Step number   1 out of a maximum of  100
 All quantities printed in internal units (Hartrees-Bohrs-Radians)
 Second derivative matrix not updated -- first step.
 The second derivative matrix:
                          roh       phi
           roh          0.04189
           phi          0.00000   0.00000
     Eigenvalues ---    0.00000   0.04189
 RFO step:  Lambda=-6.93666935D-04 EMin=-1.03383274D-16
 Linear search not attempted -- first point.
 Variable       Old X    -DE/DX   Delta X   Delta X   Delta X     New X
                                 (Linear)    (Quad)   (Total)
   roh        3.81120   0.00543   0.00000   0.12756   0.12756   3.93876
   phi       -0.98297   0.00002   0.00000   0.03349   0.03349  -0.94948
         Item               Value     Threshold  Converged?
 Maximum Force            0.005432     0.000450     NO 
 RMS     Force            0.003841     0.000300     NO 
 Maximum Displacement     0.127557     0.001800     NO 
 RMS     Displacement     0.093254     0.001200     NO 
 Predicted change in Energy=-3.528668D-04
 GradGradGradGradGradGradGradGradGradGradGradGradGradGradGradGradGradGrad

 ---------------------------------------------------------------------------------------------------
                            Z-MATRIX (ANGSTROMS AND DEGREES)
   CD    Cent   Atom    N1       Length/X        N2       Alpha/Y        N3        Beta/Z          J
 ---------------------------------------------------------------------------------------------------
      1      1  N        0  -3.013310         -2.511550         -0.412190
      2      2  N        0  -5.227560         -3.080250          0.017760
      3      3  N        0  -0.978170          3.560350          0.131290
      4      4  N        0   1.039990          2.528080          0.168310
      5      5  N        0   4.965790         -1.515470         -0.008700
      6      6  N        0  -0.840430          1.198040          0.040700
      7      7  C        0  -0.761600         -1.677320         -0.873750
      8      8  C        0  -2.178550         -1.415950         -0.453810
      9      9  C        0  -4.200080         -2.188550         -0.056910
     10     10  C        0  -2.743260         -0.232570         -0.111110
     11     11  C        0  -2.161610          1.109840         -0.029690
     12     12  C        0  -2.958510          2.253840         -0.018700
     13     13  C        0  -2.287360          3.456620          0.067680
     14     14  C        0  -0.310180          2.407830          0.107020
     15     15  C        0   2.000320          1.487940          0.118570
[...]
    12  C    0.000000   0.000000   0.000000  -0.000001   0.000097   0.000075
    13  C    0.000000   0.000000   0.000000   0.000004   0.000297  -0.000006
    14  C    0.000000   0.000000  -0.000043   0.001213  -0.000108   0.000235
    15  C    0.000010   0.000010  -0.049212   0.593067   0.000000   0.000752
    16  C   -0.000251  -0.000068  -0.039752  -0.047196   0.000000   0.000065
    17  C   -0.009680   0.002413  -0.039764  -0.041134   0.000000  -0.000132
    18  C   -0.046686  -0.047428   0.574864  -0.034132   0.000000  -0.000029
    19  C    4.932764  -0.051543   0.002279  -0.000074   0.000000   0.000000
    20  C   -0.051543   4.932405  -0.009850  -0.000282   0.000000   0.000000
    21  C    0.002279  -0.009850   5.012853   0.527994   0.000000   0.000013
    22  C   -0.000074  -0.000282   0.527994   4.900968   0.000000   0.000283
    23  S    0.000000   0.000000   0.000000   0.000000  15.372569   0.000097
    24  H    0.000000   0.000000   0.000013   0.000283   0.000097   0.471979
    25  H    0.000000   0.000000  -0.000001   0.000000  -0.000043  -0.023562
    26  H   -0.000001   0.000000  -0.000013  -0.000043   0.000013  -0.022329
    27  H    0.000000   0.000000   0.000000   0.000000   0.000462   0.000000
    28  H    0.000000   0.000000   0.000000   0.000000   0.003390   0.000000
    29  H    0.000000   0.000000   0.000063  -0.002028   0.000000   0.000001
    30  H    0.000000   0.000000   0.000000   0.000000   0.000243  -0.000001
    31  H    0.000000   0.000000   0.000000   0.000000  -0.000013   0.000000
    32  H   -0.000005   0.000002   0.000208   0.003501   0.000000  -0.000005
    33  H    0.000403  -0.000056   0.002781   0.000357   0.000000  -0.000001
    34  H    0.404113  -0.007466  -0.000048   0.000002   0.000000   0.000000
    35  H    0.404773   0.003929  -0.000092   0.000005   0.000000   0.000000
    36  H    0.391170   0.000692   0.000311  -0.000018   0.000000   0.000000
    37  H   -0.007457   0.404312   0.000488   0.000007   0.000000   0.000000
    38  H    0.000604   0.391047   0.002155  -0.000213   0.000000   0.000000
    39  H    0.003977   0.404628  -0.001048   0.000127   0.000000   0.000000
    40  H   -0.000059   0.000477   0.379591  -0.025967   0.000000   0.000000
    41  H    0.000002  -0.000004  -0.027064   0.376822   0.000000   0.000000
    42  H    0.000000   0.000000   0.000000   0.000000  -0.000409   0.000000
    43  O    0.000000   0.000000   0.000000   0.000000   0.000699   0.000000
    44  H    0.000000   0.000000   0.000000   0.000000   0.000072   0.000000
             25         26         27         28         29         30
     1  N   -0.001211   0.000465   0.002334   0.005085   0.000000  -0.000005
     2  N   -0.000017   0.000000   0.328632   0.319799   0.000000   0.000000
     3  N    0.000000   0.000000   0.000000   0.000000   0.006671   0.002689
     4  N   -0.000001   0.000002   0.000000   0.000000   0.326251   0.000015
     5  N    0.000000  -0.000004   0.000000   0.000000   0.000000   0.000000
     6  N    0.000558  -0.000013   0.000000   0.000000   0.003790   0.002473
     7  C    0.383199   0.388430   0.000002  -0.000020   0.000000  -0.000001
     8  C   -0.039412  -0.034711  -0.000157   0.000303   0.000000   0.000021
     9  C    0.000066  -0.000173  -0.025459  -0.022847   0.000000   0.000017
    10  C    0.004307  -0.003657   0.000045  -0.000073   0.000006  -0.000829
    11  C   -0.000281   0.000963  -0.000001   0.000000  -0.000100  -0.025777
    12  C    0.000003   0.000016   0.000000   0.000000   0.000018   0.374227
    13  C    0.000000   0.000000   0.000000   0.000000   0.000364  -0.021450
    14  C    0.000016  -0.000122   0.000000   0.000000  -0.021813   0.000457
    15  C    0.000006  -0.000051   0.000000   0.000000  -0.023421   0.000000
    16  C    0.000021   0.000932   0.000000   0.000000   0.001657   0.000000
    17  C    0.000005   0.001124   0.000000   0.000000  -0.000011   0.000000
    18  C    0.000000   0.000034   0.000000   0.000000  -0.000001   0.000000
    19  C    0.000000  -0.000001   0.000000   0.000000   0.000000   0.000000
    20  C    0.000000   0.000000   0.000000   0.000000   0.000000   0.000000
    21  C   -0.000001  -0.000013   0.000000   0.000000   0.000063   0.000000
    22  C    0.000000  -0.000043   0.000000   0.000000  -0.002028   0.000000
    23  S   -0.000043   0.000013   0.000462   0.003390   0.000000   0.000243
    24  H   -0.023562  -0.022329   0.000000   0.000000   0.000001  -0.000001
    25  H    0.519301  -0.025455   0.000000   0.000008   0.000000   0.000000
    26  H   -0.025455   0.500643   0.000000   0.000000   0.000000   0.000000
    27  H    0.000000   0.000000   0.312000  -0.015340   0.000000   0.000000
    28  H    0.000008   0.000000  -0.015340   0.303950   0.000000   0.000000
    29  H    0.000000   0.000000   0.000000   0.000000   0.307696  -0.000001
    30  H    0.000000   0.000000   0.000000   0.000000  -0.000001   0.445073
    31  H    0.000000   0.000000   0.000000   0.000000  -0.000034  -0.000098
    32  H    0.000000   0.000062   0.000000   0.000000  -0.000066   0.000000
    33  H    0.000000   0.000039   0.000000   0.000000   0.000002   0.000000
    34  H    0.000000   0.000000   0.000000   0.000000   0.000000   0.000000
    35  H    0.000000   0.000004   0.000000   0.000000   0.000000   0.000000
    36  H    0.000000   0.000000   0.000000   0.000000   0.000000   0.000000
    37  H    0.000000   0.000000   0.000000   0.000000   0.000000   0.000000
    38  H    0.000000   0.000000   0.000000   0.000000   0.000000   0.000000
    39  H    0.000000   0.000000   0.000000   0.000000   0.000000   0.000000
    40  H    0.000000   0.000000   0.000000   0.000000  -0.000001   0.000000
    41  H    0.000000   0.000000   0.000000   0.000000   0.001185   0.000000
    42  H    0.000000   0.000000  -0.000394  -0.000004   0.000000   0.000000
    43  O    0.000000   0.000000   0.000047   0.000049   0.000000   0.000000
    44  H    0.000000   0.000000  -0.000003  -0.000002   0.000000   0.000000
             31         32         33         34         35         36
     1  N    0.000000   0.000000   0.000000   0.000000   0.000000   0.000000
     2  N    0.000000   0.000000   0.000000   0.000000   0.000000   0.000000
     3  N   -0.042557  -0.000015   0.000000   0.000000   0.000000   0.000000
     4  N   -0.000049  -0.003402  -0.000104   0.000000   0.000000   0.000000
     5  N    0.000000  -0.000070  -0.004001  -0.036773  -0.044620  -0.057610
     6  N   -0.000568   0.001774  -0.000007   0.000000   0.000000   0.000000
     7  C    0.000000   0.000010   0.000000   0.000000   0.000000   0.000000
     8  C    0.000001   0.000001   0.000000   0.000000   0.000000   0.000000
     9  C    0.000000   0.000000   0.000000   0.000000   0.000000   0.000000
    10  C   -0.000054  -0.000025   0.000000   0.000000   0.000000   0.000000
    11  C    0.002436  -0.000008   0.000000   0.000000   0.000000   0.000000
    12  C   -0.051735   0.000008   0.000000   0.000000   0.000000   0.000000
    13  C    0.406779  -0.000002   0.000000   0.000000   0.000000   0.000000
    14  C    0.003581   0.002264  -0.000003   0.000000   0.000000   0.000000
    15  C    0.000003  -0.024184   0.001668   0.000000  -0.000007  -0.000006
    16  C    0.000000   0.376565  -0.025874   0.000007   0.000161  -0.000233
    17  C    0.000000  -0.030597   0.380078   0.000467  -0.001267   0.002143
    18  C    0.000000   0.001595  -0.030810   0.003340  -0.003474   0.002097
    19  C    0.000000  -0.000005   0.000403   0.404113   0.404773   0.391170
    20  C    0.000000   0.000002  -0.000056  -0.007466   0.003929   0.000692
    21  C    0.000000   0.000208   0.002781  -0.000048  -0.000092   0.000311
    22  C    0.000000   0.003501   0.000357   0.000002   0.000005  -0.000018
    23  S   -0.000013   0.000000   0.000000   0.000000   0.000000   0.000000
    24  H    0.000000  -0.000005  -0.000001   0.000000   0.000000   0.000000
    25  H    0.000000   0.000000   0.000000   0.000000   0.000000   0.000000
    26  H    0.000000   0.000062   0.000039   0.000000   0.000004   0.000000
    27  H    0.000000   0.000000   0.000000   0.000000   0.000000   0.000000
    28  H    0.000000   0.000000   0.000000   0.000000   0.000000   0.000000
    29  H   -0.000034  -0.000066   0.000002   0.000000   0.000000   0.000000
    30  H   -0.000098   0.000000   0.000000   0.000000   0.000000   0.000000
    31  H    0.468616   0.000000   0.000000   0.000000   0.000000   0.000000
    32  H    0.000000   0.456932  -0.001910   0.000000   0.000000  -0.000002
    33  H    0.000000  -0.001910   0.474632   0.000162  -0.002093  -0.000156
    34  H    0.000000   0.000000   0.000162   0.514831  -0.025294  -0.030475
    35  H    0.000000   0.000000  -0.002093  -0.025294   0.535059  -0.044058
    36  H    0.000000  -0.000002  -0.000156  -0.030475  -0.044058   0.575788
    37  H    0.000000   0.000000   0.000000   0.001863   0.000249  -0.000066
    38  H    0.000000   0.000000   0.000004  -0.000051  -0.000357   0.002379
    39  H    0.000000   0.000000  -0.000001   0.000240   0.000018  -0.000354
    40  H    0.000000   0.000011  -0.000123   0.000000  -0.000003   0.000008
    41  H    0.000000  -0.000132   0.000013   0.000000   0.000000   0.000000
    42  H    0.000000   0.000000   0.000000   0.000000   0.000000   0.000000
    43  O    0.000000   0.000000   0.000000   0.000000   0.000000   0.000000
    44  H    0.000000   0.000000   0.000000   0.000000   0.000000   0.000000
             37         38         39         40         41         42
     1  N    0.000000   0.000000   0.000000   0.000000   0.000000  -0.000389
     2  N    0.000000   0.000000   0.000000   0.000000   0.000000   0.011733
     3  N    0.000000   0.000000   0.000000   0.000000  -0.000025   0.000000
     4  N    0.000000   0.000000   0.000000  -0.000114   0.000167   0.000000
     5  N   -0.036864  -0.057991  -0.044562  -0.004170  -0.000073   0.000000
     6  N    0.000000   0.000000   0.000000   0.000000  -0.000027   0.000000
     7  C    0.000000   0.000000   0.000000   0.000000   0.000000   0.000001
     8  C    0.000000   0.000000   0.000000   0.000000   0.000000   0.000009
     9  C    0.000000   0.000000   0.000000   0.000000   0.000000  -0.000581
    10  C    0.000000   0.000000   0.000000   0.000000   0.000000   0.000020
    11  C    0.000000   0.000000   0.000000   0.000000   0.000000   0.000000
    12  C    0.000000   0.000000   0.000000   0.000000   0.000000   0.000000
    13  C    0.000000   0.000000   0.000000   0.000000   0.000000   0.000000
    14  C    0.000000   0.000000   0.000000   0.000000   0.000212   0.000000
    15  C    0.000000  -0.000005  -0.000009   0.001765  -0.033279   0.000000
    16  C    0.000002  -0.000019   0.000006   0.000281   0.003305   0.000000
    17  C   -0.000052   0.000214  -0.000061   0.002818   0.000254   0.000000
    18  C    0.003289   0.002020  -0.003253  -0.030020   0.001617   0.000000
    19  C   -0.007457   0.000604   0.003977  -0.000059   0.000002   0.000000
    20  C    0.404312   0.391047   0.404628   0.000477  -0.000004   0.000000
    21  C    0.000488   0.002155  -0.001048   0.379591  -0.027064   0.000000
    22  C    0.000007  -0.000213   0.000127  -0.025967   0.376822   0.000000
    23  S    0.000000   0.000000   0.000000   0.000000   0.000000  -0.000409
    24  H    0.000000   0.000000   0.000000   0.000000   0.000000   0.000000
    25  H    0.000000   0.000000   0.000000   0.000000   0.000000   0.000000
    26  H    0.000000   0.000000   0.000000   0.000000   0.000000   0.000000
    27  H    0.000000   0.000000   0.000000   0.000000   0.000000  -0.000394
    28  H    0.000000   0.000000   0.000000   0.000000   0.000000  -0.000004
    29  H    0.000000   0.000000   0.000000  -0.000001   0.001185   0.000000
    30  H    0.000000   0.000000   0.000000   0.000000   0.000000   0.000000
    31  H    0.000000   0.000000   0.000000   0.000000   0.000000   0.000000
    32  H    0.000000   0.000000   0.000000   0.000011  -0.000132   0.000000
    33  H    0.000000   0.000004  -0.000001  -0.000123   0.000013   0.000000
    34  H    0.001863  -0.000051   0.000240   0.000000   0.000000   0.000000
    35  H    0.000249  -0.000357   0.000018  -0.000003   0.000000   0.000000
    36  H   -0.000066   0.002379  -0.000354   0.000008   0.000000   0.000000
    37  H    0.514280  -0.030932  -0.024853   0.000166   0.000000   0.000000
    38  H   -0.030932   0.578203  -0.044224   0.000023  -0.000002   0.000000
    39  H   -0.024853  -0.044224   0.534276  -0.002373   0.000001   0.000000
    40  H    0.000166   0.000023  -0.002373   0.474898  -0.002116   0.000000
    41  H    0.000000  -0.000002   0.000001  -0.002116   0.472630   0.000000
    42  H    0.000000   0.000000   0.000000   0.000000   0.000000   0.276291
    43  O    0.000000   0.000000   0.000000   0.000000   0.000000   0.262908
    44  H    0.000000   0.000000   0.000000   0.000000   0.000000  -0.018002
             43         44
     1  N   -0.000026   0.000003
     2  N   -0.004892   0.000182
     3  N    0.000000   0.000000
     4  N    0.000000   0.000000
     5  N    0.000000   0.000000
     6  N    0.000000   0.000000
     7  C    0.000000   0.000000
     8  C    0.000003   0.000000
     9  C    0.000606   0.000223
    10  C   -0.000006  -0.000005
    11  C    0.000000   0.000000
    12  C    0.000000   0.000000
    13  C    0.000000   0.000000
    14  C    0.000000   0.000000
    15  C    0.000000   0.000000
    16  C    0.000000   0.000000
    17  C    0.000000   0.000000
    18  C    0.000000   0.000000
    19  C    0.000000   0.000000
    20  C    0.000000   0.000000
    21  C    0.000000   0.000000
    22  C    0.000000   0.000000
    23  S    0.000699   0.000072
    24  H    0.000000   0.000000
    25  H    0.000000   0.000000
    26  H    0.000000   0.000000
    27  H    0.000047  -0.000003
    28  H    0.000049  -0.000002
    29  H    0.000000   0.000000
    30  H    0.000000   0.000000
    31  H    0.000000   0.000000
    32  H    0.000000   0.000000
    33  H    0.000000   0.000000
    34  H    0.000000   0.000000
    35  H    0.000000   0.000000
    36  H    0.000000   0.000000
    37  H    0.000000   0.000000
    38  H    0.000000   0.000000
    39  H    0.000000   0.000000
    40  H    0.000000   0.000000
    41  H    0.000000   0.000000
    42  H    0.262908  -0.018002
    43  O    8.380820   0.268664
    44  H    0.268664   0.319237
 Mulliken atomic charges:
              1
     1  N   -0.580806
     2  N   -0.913879
     3  N   -0.625312
     4  N   -0.913024
     5  N   -0.669152
     6  N   -0.684396
     7  C   -0.492207
     8  C    0.331088
     9  C    0.371227
    10  C   -0.377531
    11  C    0.421811
    12  C   -0.368756
    13  C    0.122795
    14  C    0.862384
    15  C    0.286118
    16  C   -0.164697
    17  C   -0.283594
    18  C    0.388174
    19  C   -0.289874
    20  C   -0.289821
    21  C   -0.279992
    22  C   -0.197696
    23  S    0.276119
    24  H    0.210524
    25  H    0.182492
    26  H    0.193846
    27  H    0.397832
    28  H    0.405703
    29  H    0.399773
    30  H    0.222949
    31  H    0.213691
    32  H    0.217491
    33  H    0.204999
    34  H    0.175082
    35  H    0.177067
    36  H    0.158392
    37  H    0.175569
    38  H    0.157145
    39  H    0.177466
    40  H    0.204907
    41  H    0.206516
    42  H    0.468818
    43  O   -0.908871
    44  H    0.429632
 Sum of Mulliken atomic charges =   0.00000
 Mulliken charges with hydrogens summed into heavy atoms:
              1
     1  N   -0.580806
     2  N   -0.110345
     3  N   -0.625312
     4  N   -0.513251
     5  N   -0.669152
     6  N   -0.684396
     7  C    0.094654
     8  C    0.331088
     9  C    0.371227
    10  C   -0.377531
    11  C    0.421811
    12  C   -0.145807
    13  C    0.336486
    14  C    0.862384
    15  C    0.286118
    16  C    0.052794
    17  C   -0.078595
    18  C    0.388174
    19  C    0.220667
    20  C    0.220358
    21  C   -0.075085
    22  C    0.008821
    23  S    0.276119
    43  O   -0.010422
 Sum of Mulliken charges with hydrogens summed into heavy atoms =   0.00000
 Electronic spatial extent (au):  <R**2>=          12610.1758
 Charge=              0.0000 electrons
 Dipole moment (field-independent basis, Debye):
    X=              2.8592    Y=             -1.2198    Z=              2.1290  Tot=              3.7677
 Quadrupole moment (field-independent basis, Debye-Ang):
   XX=           -142.6210   YY=           -143.3079   ZZ=           -149.6525
   XY=             -6.8618   XZ=            -20.8560   YZ=            -12.3938
 Traceless Quadrupole moment (field-independent basis, Debye-Ang):
   XX=              2.5728   YY=              1.8860   ZZ=             -4.4587
   XY=             -6.8618   XZ=            -20.8560   YZ=            -12.3938
 Octapole moment (field-independent basis, Debye-Ang**2):
  XXX=            407.0242  YYY=             17.3650  ZZZ=             52.3162  XYY=             33.5092
  XXY=             18.0145  XXZ=            167.0951  XZZ=             87.9056  YZZ=             20.4185
  YYZ=             48.0349  XYZ=             50.3966
 Hexadecapole moment (field-independent basis, Debye-Ang**3):
 XXXX=         -13288.9196 YYYY=          -3445.1921 ZZZZ=           -767.0352 XXXY=          -1023.5466
 XXXZ=          -1757.6624 YYYX=           -268.3365 YYYZ=           -270.2952 ZZZX=           -423.7352
 ZZZY=           -172.9434 XXYY=          -2422.8212 XXZZ=          -2469.2047 YYZZ=           -785.4343
 XXYZ=           -592.2772 YYXZ=           -323.6614 ZZXY=           -220.5426
 N-N= 2.101517368912D+03 E-N=-7.531084039326D+03  KE= 1.415208929619D+03
 1\1\GINC-B41\FOpt\RHF\6-31G(d)\C16H20N6O1S1\RUPAKHETIC\28-Mar-2018\1\\
 #HF/6-31G* nosymm SCF=Tight opt=(Z-MATRIX,MaxCycle=200)\\Mol-Water Dim
 er\\0,1\N,0,-3.01331,-2.51155,-0.41219\N,0,-5.22756,-3.08025,0.01776\N
 ,0,-0.97817,3.56035,0.13129\N,0,1.03999,2.52808,0.16831\N,0,4.96579,-1
 .51547,-0.0087\N,0,-0.84043,1.19804,0.0407\C,0,-0.7616,-1.67732,-0.873
 75\C,0,-2.17855,-1.41595,-0.45381\C,0,-4.20008,-2.18855,-0.05691\C,0,-
 2.74326,-0.23257,-0.11111\C,0,-2.16161,1.10984,-0.02969\C,0,-2.95851,2
 .25384,-0.0187\C,0,-2.28736,3.45662,0.06768\C,0,-0.31018,2.40783,0.107
 02\C,0,2.00032,1.48794,0.11857\C,0,2.04918,0.49089,1.08054\C,0,3.01909
 ,-0.49053,1.0434\C,0,4.00146,-0.50964,0.04361\C,0,5.18471,-2.31613,1.1
 765\C,0,6.11511,-1.31633,-0.86371\C,0,3.95701,0.51458,-0.90628\C,0,2.9
 6534,1.47999,-0.87153\S,0,-4.44477,-0.50304,0.26866\H,0,-0.3237,-0.829
 86,-1.37539\H,0,-0.74791,-2.54516,-1.52064\H,0,-0.14764,-1.89114,-0.00
 521\H,0,-5.97008,-2.88098,0.65016\H,0,-4.93488,-4.03367,0.00875\H,0,1.
 36351,3.46879,0.16814\H,0,-4.02699,2.21893,-0.09266\H,0,-2.83523,4.383
 64,0.08106\H,0,1.31685,0.47914,1.86562\H,0,3.00679,-1.23797,1.81091\H,
 0,5.96939,-3.03215,0.97745\H,0,4.29634,-2.88014,1.43166\H,0,5.47495,-1
 .72296,2.04398\H,0,6.75956,-2.18123,-0.79487\H,0,6.69756,-0.43358,-0.5
 979\H,0,5.81297,-1.22539,-1.89952\H,0,4.68426,0.56815,-1.69104\H,0,2.9
 501,2.24274,-1.6304\X,0,-4.53573,-3.31256,1.32826\X,0,-4.36546,-4.1272
 8,-0.62296\H,2,roh,43,90.,42,180.,0\X,44,1.5,2,90.,43,0.,0\O,44,0.9474
 ,45,90.,43,180.,0\H,46,0.9474,44,105.5395,45,phi,0\\roh=2.3001558\phi=
 -62.34648568\\Version=EM64L-G09RevA.02\HF=-1416.5936323\RMSD=8.001e-09
 \RMSF=1.171e-03\Dipole=1.1248945,-0.4798979,0.8376054\Quadrupole=1.912
 7839,1.4021592,-3.3149431,-5.101599,-15.5059022,-9.2144882\PG=C01 [X(C
 16H20N6O1S1)]\\@


 ... A MOLECULAR SYSTEM ... (PASSES) ... FROM ONE STATE OF EQUILIBRIUM 
 TO ANOTHER ... BY MEANS OF ALL POSSIBLE INTERMEDIATE PATHS, 
 BUT THE PATH MOST ECONOMICAL OF ENERGY WILL BE THE MORE OFTEN TRAVELED.

                      -- HENRY EYRING, 1945
 Job cpu time:  0 days  0 hours 33 minutes 34.5 seconds.
 File lengths (MBytes):  RWF=    105 Int=      0 D2E=      0 Chk=     10 Scr=      1
 Normal termination of Gaussian 09 at Wed Mar 28 15:51:37 2018.
