 Entering Gaussian System, Link 0=/homes/huanglei/prog/g09/g09
 Initial command:
 /homes/huanglei/prog/g09/l1.exe /scratch/1867310.bmgt1.lcrc.anl.gov/0/Gau-20924.inp -scrdir=/scratch/1867310.bmgt1.lcrc.anl.gov/0/
 Entering Link 1 = /homes/huanglei/prog/g09/l1.exe PID=     20926.
  
 Copyright (c) 1988,1990,1992,1993,1995,1998,2003,2009, Gaussian, Inc.
                  All Rights Reserved.
  
 This is part of the Gaussian(R) 09 program.  It is based on
 the Gaussian(R) 03 system (copyright 2003, Gaussian, Inc.),
 the Gaussian(R) 98 system (copyright 1998, Gaussian, Inc.),
 the Gaussian(R) 94 system (copyright 1995, Gaussian, Inc.),
 the Gaussian 92(TM) system (copyright 1992, Gaussian, Inc.),
 the Gaussian 90(TM) system (copyright 1990, Gaussian, Inc.),
 the Gaussian 88(TM) system (copyright 1988, Gaussian, Inc.),
 the Gaussian 86(TM) system (copyright 1986, Carnegie Mellon
 University), and the Gaussian 82(TM) system (copyright 1983,
 Carnegie Mellon University). Gaussian is a federally registered
 trademark of Gaussian, Inc.
  
 This software contains proprietary and confidential information,
 including trade secrets, belonging to Gaussian, Inc.
  
 This software is provided under written license and may be
 used, copied, transmitted, or stored only in accord with that
 written license.
  
 The following legend is applicable only to US Government
 contracts under FAR:
  
                    RESTRICTED RIGHTS LEGEND
  
 Use, reproduction and disclosure by the US Government is
 subject to restrictions as set forth in subparagraphs (a)
 and (c) of the Commercial Computer Software - Restricted
 Rights clause in FAR 52.227-19.
  
 Gaussian, Inc.
 340 Quinnipiac St., Bldg. 40, Wallingford CT 06492
  
  
 ---------------------------------------------------------------
 Warning -- This program may not be used in any manner that
 competes with the business of Gaussian, Inc. or will provide
 assistance to any competitor of Gaussian, Inc.  The licensee
 of this program is prohibited from giving any competitor of
 Gaussian, Inc. access to this program.  By using this program,
 the user acknowledges that Gaussian, Inc. is engaged in the
 business of creating and licensing software in the field of
 computational chemistry and represents and warrants to the
 licensee that it is not a competitor of Gaussian, Inc. and that
 it will not use this program in any manner prohibited above.
 ---------------------------------------------------------------
  

 Cite this work as:
 Gaussian 09, Revision A.02,
 M. J. Frisch, G. W. Trucks, H. B. Schlegel, G. E. Scuseria, 
 M. A. Robb, J. R. Cheeseman, G. Scalmani, V. Barone, B. Mennucci, 
 G. A. Petersson, H. Nakatsuji, M. Caricato, X. Li, H. P. Hratchian, 
 A. F. Izmaylov, J. Bloino, G. Zheng, J. L. Sonnenberg, M. Hada, 
 M. Ehara, K. Toyota, R. Fukuda, J. Hasegawa, M. Ishida, T. Nakajima, 
 Y. Honda, O. Kitao, H. Nakai, T. Vreven, J. A. Montgomery, Jr., 
 J. E. Peralta, F. Ogliaro, M. Bearpark, J. J. Heyd, E. Brothers, 
 K. N. Kudin, V. N. Staroverov, R. Kobayashi, J. Normand, 
 K. Raghavachari, A. Rendell, J. C. Burant, S. S. Iyengar, J. Tomasi, 
 M. Cossi, N. Rega, J. M. Millam, M. Klene, J. E. Knox, J. B. Cross, 
 V. Bakken, C. Adamo, J. Jaramillo, R. Gomperts, R. E. Stratmann, 
 O. Yazyev, A. J. Austin, R. Cammi, C. Pomelli, J. W. Ochterski, 
 R. L. Martin, K. Morokuma, V. G. Zakrzewski, G. A. Voth, 
 P. Salvador, J. J. Dannenberg, S. Dapprich, A. D. Daniels, 
 O. Farkas, J. B. Foresman, J. V. Ortiz, J. Cioslowski, 
 and D. J. Fox, Gaussian, Inc., Wallingford CT, 2009.
 
 ******************************************
 Gaussian 09:  EM64L-G09RevA.02 11-Jun-2009
                28-Mar-2018 
 ******************************************
 %mem=5GB
 %nproc=4
 Will use up to    4 processors via shared memory.
 -------------------------------------------------------
 #HF/6-31G* nosymm SCF=Tight opt=(Z-MATRIX,MaxCycle=200)
 -------------------------------------------------------
 1/6=200,10=7,18=40,38=1/1,3;
 2/12=2,15=1,17=6,18=5,29=3,40=1/2;
 3/5=1,6=6,7=1,11=9,16=1,25=1,30=1,71=1/1,2,3;
 4//1;
 5/5=2,32=2,38=5/2;
 6/7=2,8=2,9=2,10=2,28=1/1;
 7/29=1,30=1/1,2,3,16;
 1/6=200,10=7,18=40/3(2);
 2/15=1,29=3/2;
 99//99;
 2/15=1,29=3/2;
 3/5=1,6=6,7=1,11=9,16=1,25=1,30=1,71=1/1,2,3;
 4/5=5,16=3/1;
 5/5=2,32=2,38=5/2;
 7/30=1/1,2,3,16;
 1/6=200,18=40/3(-5);
 2/15=1,29=3/2;
 6/7=2,8=2,9=2,10=2,19=2,28=1/1;
 99/9=1/99;
 ---------------
 Mol-Water Dimer
 ---------------
 Symbolic Z-matrix:
 Charge =  0 Multiplicity = 1
 N                    -3.01331  -2.51155  -0.41219 
 N99                  -5.22756  -3.08025   0.01776 
 N                    -0.97817   3.56035   0.13129 
 N                     1.03999   2.52808   0.16831 
 N                     4.96579  -1.51547  -0.0087 
 N                    -0.84043   1.19804   0.0407 
 C                    -0.7616   -1.67732  -0.87375 
 C                    -2.17855  -1.41595  -0.45381 
 C                    -4.20008  -2.18855  -0.05691 
 C                    -2.74326  -0.23257  -0.11111 
 C                    -2.16161   1.10984  -0.02969 
 C                    -2.95851   2.25384  -0.0187 
 C                    -2.28736   3.45662   0.06768 
 C                    -0.31018   2.40783   0.10702 
 C                     2.00032   1.48794   0.11857 
 C                     2.04918   0.49089   1.08054 
 C                     3.01909  -0.49053   1.0434 
 C                     4.00146  -0.50964   0.04361 
 C                     5.18471  -2.31613   1.1765 
 C                     6.11511  -1.31633  -0.86371 
 C                     3.95701   0.51458  -0.90628 
 C                     2.96534   1.47999  -0.87153 
 S                    -4.44477  -0.50304   0.26866 
 H                    -0.3237   -0.82986  -1.37539 
 H                    -0.74791  -2.54516  -1.52064 
 H                    -0.14764  -1.89114  -0.00521 
 H99                  -5.97008  -2.88098   0.65016 
 H                    -4.93488  -4.03367   0.00875 
 H                     1.36351   3.46879   0.16814 
 H                    -4.02699   2.21893  -0.09266 
 H                    -2.83523   4.38364   0.08106 
 H                     1.31685   0.47914   1.86562 
 H                     3.00679  -1.23797   1.81091 
 H                     5.96939  -3.03215   0.97745 
 H                     4.29634  -2.88014   1.43166 
 H                     5.47495  -1.72296   2.04398 
 H                     6.75956  -2.18123  -0.79487 
 H                     6.69756  -0.43358  -0.5979 
 H                     5.81297  -1.22539  -1.89952 
 H                     4.68426   0.56815  -1.69104 
 H                     2.9501    2.24274  -1.6304 
 X1                   -5.22756  -3.08025   0.01776 
 X2                   -5.24651  -3.62399   1.73385 
 X3                   -9.69955  -1.8801    3.82653 
 O1W                  H99  roh      X2    90.      N99   180.     0
 H1W                  O1W   0.9474   H99   127.2302  X2   phi      0
 H2W                  O1W   0.9474   H1W   105.5395  X3    0.       0
       Variables:
  roh                   2.0068                   
  phi                  60.64664                  
 

 GradGradGradGradGradGradGradGradGradGradGradGradGradGradGradGradGradGrad
 Berny optimization.
 Initialization pass.
                       ----------------------------
                       !    Initial Parameters    !
                       ! (Angstroms and Degrees)  !
 ----------------------                            ----------------------
 !      Name          Value   Derivative information (Atomic Units)     !
 ------------------------------------------------------------------------
 !       roh         2.0068   estimate D2E/DX2                          !
 !       phi        60.6466   estimate D2E/DX2                          !
 ------------------------------------------------------------------------
 Trust Radius=3.00D-01 FncErr=1.00D-07 GrdErr=1.00D-07
 Number of steps in this run= 100 maximum allowed number of steps= 100.
 GradGradGradGradGradGradGradGradGradGradGradGradGradGradGradGradGradGrad

 ---------------------------------------------------------------------------------------------------
                            Z-MATRIX (ANGSTROMS AND DEGREES)
   CD    Cent   Atom    N1       Length/X        N2       Alpha/Y        N3        Beta/Z          J
 ---------------------------------------------------------------------------------------------------
      1      1  N        0  -3.013310         -2.511550         -0.412190
      2      2  N        0  -5.227560         -3.080250          0.017760
      3      3  N        0  -0.978170          3.560350          0.131290
      4      4  N        0   1.039990          2.528080          0.168310
      5      5  N        0   4.965790         -1.515470         -0.008700
      6      6  N        0  -0.840430          1.198040          0.040700
      7      7  C        0  -0.761600         -1.677320         -0.873750
      8      8  C        0  -2.178550         -1.415950         -0.453810
      9      9  C        0  -4.200080         -2.188550         -0.056910
     10     10  C        0  -2.743260         -0.232570         -0.111110
     11     11  C        0  -2.161610          1.109840         -0.029690
     12     12  C        0  -2.958510          2.253840         -0.018700
     13     13  C        0  -2.287360          3.456620          0.067680
     14     14  C        0  -0.310180          2.407830          0.107020
     15     15  C        0   2.000320          1.487940          0.118570
     16     16  C        0   2.049180          0.490890          1.080540
     17     17  C        0   3.019090         -0.490530          1.043400
     18     18  C        0   4.001460         -0.509640          0.043610
     19     19  C        0   5.184710         -2.316130          1.176500
     20     20  C        0   6.115110         -1.316330         -0.863710
     21     21  C        0   3.957010          0.514580         -0.906280
     22     22  C        0   2.965340          1.479990         -0.871530
     23     23  S        0  -4.444770         -0.503040          0.268660
     24     24  H        0  -0.323700         -0.829860         -1.375390
     25     25  H        0  -0.747910         -2.545160         -1.520640
     26     26  H        0  -0.147640         -1.891140         -0.005210
     27     27  H        0  -5.970080         -2.880980          0.650160
     28     28  H        0  -4.934880         -4.033670          0.008750
     29     29  H        0   1.363510          3.468790          0.168140
     30     30  H        0  -4.026990          2.218930         -0.092660
     31     31  H        0  -2.835230          4.383640          0.081060
     32     32  H        0   1.316850          0.479140          1.865620
     33     33  H        0   3.006790         -1.237970          1.810910
     34     34  H        0   5.969390         -3.032150          0.977450
     35     35  H        0   4.296340         -2.880140          1.431660
     36     36  H        0   5.474950         -1.722960          2.043980
     37     37  H        0   6.759560         -2.181230         -0.794870
     38     38  H        0   6.697560         -0.433580         -0.597900
     39     39  H        0   5.812970         -1.225390         -1.899520
     40     40  H        0   4.684260          0.568150         -1.691040
     41     41  H        0   2.950100          2.242740         -1.630400
     42         X        0  -5.227560         -3.080250          0.017760
     43         X        0  -5.246510         -3.623990          1.733850
     44         X        0  -9.699550         -1.880100          3.826530
     45     42  O       27   2.006800(    44)     43   90.000(    89)      2  180.000(   133)      0
     46     43  H       45   0.947400(    45)     27  127.230(    90)     43   60.647(   134)      0
     47     44  H       45   0.947400(    46)     46  105.540(    91)     44    0.000(   135)      0
 ---------------------------------------------------------------------------------------------------
                         Z-Matrix orientation:                         
 ---------------------------------------------------------------------
 Center     Atomic      Atomic             Coordinates (Angstroms)
 Number     Number       Type             X           Y           Z
 ---------------------------------------------------------------------
      1          7           0       -3.013310   -2.511550   -0.412190
      2          7           0       -5.227560   -3.080250    0.017760
      3          7           0       -0.978170    3.560350    0.131290
      4          7           0        1.039990    2.528080    0.168310
      5          7           0        4.965790   -1.515470   -0.008700
      6          7           0       -0.840430    1.198040    0.040700
      7          6           0       -0.761600   -1.677320   -0.873750
      8          6           0       -2.178550   -1.415950   -0.453810
      9          6           0       -4.200080   -2.188550   -0.056910
     10          6           0       -2.743260   -0.232570   -0.111110
     11          6           0       -2.161610    1.109840   -0.029690
     12          6           0       -2.958510    2.253840   -0.018700
     13          6           0       -2.287360    3.456620    0.067680
     14          6           0       -0.310180    2.407830    0.107020
     15          6           0        2.000320    1.487940    0.118570
     16          6           0        2.049180    0.490890    1.080540
     17          6           0        3.019090   -0.490530    1.043400
     18          6           0        4.001460   -0.509640    0.043610
     19          6           0        5.184710   -2.316130    1.176500
     20          6           0        6.115110   -1.316330   -0.863710
     21          6           0        3.957010    0.514580   -0.906280
     22          6           0        2.965340    1.479990   -0.871530
     23         16           0       -4.444770   -0.503040    0.268660
     24          1           0       -0.323700   -0.829860   -1.375390
     25          1           0       -0.747910   -2.545160   -1.520640
     26          1           0       -0.147640   -1.891140   -0.005210
     27          1           0       -5.970080   -2.880980    0.650160
     28          1           0       -4.934880   -4.033670    0.008750
     29          1           0        1.363510    3.468790    0.168140
     30          1           0       -4.026990    2.218930   -0.092660
     31          1           0       -2.835230    4.383640    0.081060
     32          1           0        1.316850    0.479140    1.865620
     33          1           0        3.006790   -1.237970    1.810910
     34          1           0        5.969390   -3.032150    0.977450
     35          1           0        4.296340   -2.880140    1.431660
     36          1           0        5.474950   -1.722960    2.043980
     37          1           0        6.759560   -2.181230   -0.794870
     38          1           0        6.697560   -0.433580   -0.597900
     39          1           0        5.812970   -1.225390   -1.899520
     40          1           0        4.684260    0.568150   -1.691040
     41          1           0        2.950100    2.242740   -1.630400
     42         -1           0       -5.227560   -3.080250    0.017760
     43         -1           0       -5.246510   -3.623990    1.733850
     44         -1           0       -9.699550   -1.880100    3.826530
     45          8           0       -7.466940   -2.479267    1.925026
     46          1           0       -7.414135   -1.991903    2.735738
     47          1           0       -8.374831   -2.737152    1.842586
 ---------------------------------------------------------------------
                    Distance matrix (angstroms):
                    1          2          3          4          5
     1  N    0.000000
     2  N    2.326194   0.000000
     3  N    6.426907   7.884654   0.000000
     4  N    6.493388   8.411790   2.267140   0.000000
     5  N    8.051150  10.312789   7.817558   5.638576   0.000000
     6  N    4.322913   6.127903   2.368056   2.306788   6.409194
     7  C    2.445235   4.765270   5.337621   4.692228   5.794610
     8  C    1.378004   3.505529   5.152360   5.128490   7.158884
     9  C    1.280225   1.362505   6.592873   7.053769   9.190676
    10  C    2.314590   3.781221   4.190530   4.691721   7.815739
    11  C    3.739808   5.192221   2.726068   3.507257   7.595559
    12  C    4.781922   5.796761   2.377228   4.012254   8.775097
    13  C    6.031279   7.167841   1.314833   3.455947   8.794072
    14  C    5.637091   7.369370   1.332330   1.356899   6.575829
    15  C    6.435380   8.551068   3.628560   1.416545   4.222639
    16  C    6.072207   8.175175   4.414466   2.449647   3.703854
    17  C    6.526340   8.704357   5.763650   3.714112   2.438659
    18  C    7.309063   9.580371   6.431891   4.244243   1.394404
    19  C    8.352823  10.504376   8.579427   6.454574   1.446956
    20  C    9.217401  11.512800   8.665256   6.449914   1.446249
    21  C    7.614916   9.906209   5.891457   3.703773   2.438112
    22  C    7.203308   9.418611   4.569991   2.426259   3.703924
    23  S    2.558661   2.705129   5.342970   6.267404   9.468927
    24  H    3.315092   5.572519   4.687468   3.939343   5.506052
    25  H    2.522266   4.766577   6.329229   5.637987   5.999383
    26  H    2.960170   5.217288   5.516082   4.579310   5.127212
    27  H    3.163472   0.995477   8.165729   8.867423  11.040469
    28  H    2.487262   0.997373   8.563861   8.875871  10.215914
    29  H    7.433559   9.292725   2.343759   0.994787   6.152279
    30  H    4.848411   5.434599   3.338393   5.083106   9.737704
    31  H    6.915103   7.838170   2.031994   4.297446   9.780770
    32  H    5.734364   7.675490   4.215314   2.675008   4.561393
    33  H    6.542613   8.626349   6.459482   4.555170   2.688060
    34  H    9.104451  11.238105   9.614865   7.474614   2.068822
    35  H    7.547624   9.630360   8.425635   6.438067   2.094069
    36  H    8.871595  10.976863   8.556548   6.423266   2.125039
    37  H    9.785936  12.048222   9.679668   7.471198   2.068553
    38  H    9.932444  12.230797   8.683319   6.431688   2.125246
    39  H    9.042653  11.358247   8.552607   6.414499   2.092143
    40  H    8.388837  10.699299   6.658623   4.536432   2.692768
    41  H    7.723313   9.895695   4.502328   2.639185   4.562572
    42  X    2.326194   0.000000   7.884654   8.411790  10.312789
    43  X    3.290926   1.800271   8.508917   8.934146  10.572294
    44  X    7.941743   5.995480  10.923176  12.171785  15.162920
    45  O    5.029756   3.002277   9.044258  10.026337  12.619072
    46  H    5.435692   3.654177   8.890012   9.924422  12.689423
    47  H    5.820723   3.654178   9.863957  10.916259  13.523754
                    6          7          8          9         10
     6  N    0.000000
     7  C    3.018299   0.000000
     8  C    2.977927   1.500804   0.000000
     9  C    4.771349   3.570956   2.200233   0.000000
    10  C    2.385467   2.568248   1.355260   2.439492   0.000000
    11  C    1.325990   3.231211   2.561207   3.877561   1.465268
    12  C    2.367384   4.583835   3.776906   4.612785   2.497420
    13  C    2.682446   5.437975   4.901605   5.961708   3.721550
    14  C    1.322556   4.225416   4.292625   6.023695   3.597106
    15  C    2.856565   4.316454   5.120854   7.210571   5.051184
    16  C    3.151377   4.052267   4.885076   6.893942   4.991083
    17  C    4.330424   4.401994   5.487577   7.497358   5.882526
    18  C    5.134207   4.989165   6.265888   8.372222   6.752181
    19  C    7.066947   6.322199   7.595119   9.466354   8.297703
    20  C    7.451144   6.886186   8.304381  10.383392   8.956096
    21  C    4.937542   5.202957   6.448005   8.635187   6.788531
    22  C    3.923716   4.884536   5.917817   8.091047   6.008262
    23  S    3.992105   4.031101   2.547768   1.734016   1.764232
    24  H    2.526796   1.077770   2.152505   4.314018   2.794536
    25  H    4.056832   1.082497   2.111865   3.766584   3.363966
    26  H    3.166244   1.084909   2.133458   4.063668   3.082095
    27  H    6.582033   5.558720   4.211978   2.027882   4.243345
    28  H    6.643518   4.873136   3.829331   1.987136   4.389297
    29  H    3.167001   5.664281   6.065781   7.937864   5.535667
    30  H    3.348756   5.143310   4.093838   4.411022   2.767337
    31  H    3.758843   6.476638   5.861106   6.713831   4.621124
    32  H    2.915649   4.058870   4.603145   6.422555   4.571486
    33  H    4.885580   4.647708   5.661129   7.505420   6.145573
    34  H    8.071286   7.111170   8.429089  10.256690   9.215904
    35  H    6.704680   5.687218   6.900946   8.653513   7.677613
    36  H    7.240815   6.885477   8.056629   9.911444   8.625813
    37  H    8.359276   7.538435   8.977293  10.984459   9.724628
    38  H    7.738946   7.567169   8.931469  11.051296   9.455498
    39  H    7.342016   6.669439   8.123471  10.226635   8.797339
    40  H    5.823906   5.947057   7.250210   9.444643   7.635796
    41  H    4.272247   5.451248   6.408855   8.557878   6.391381
    42  X    6.127903   4.765270   3.505529   1.362505   3.781221
    43  X    6.747760   5.541076   4.367342   2.522365   4.601290
    44  X   10.113924  10.100530   8.666152   6.739467   8.161454
    45  O    7.809220   7.310120   5.895471   3.832096   5.613079
    46  H    7.787976   7.575195   6.157620   4.262359   5.746031
    47  H    8.689058   8.152485   6.738910   4.619263   6.465636
                   11         12         13         14         15
    11  C    0.000000
    12  C    1.394240   0.000000
    13  C    2.352163   1.380067   0.000000
    14  C    2.265229   2.655781   2.238470   0.000000
    15  C    4.181698   5.019506   4.718314   2.486914   0.000000
    16  C    4.398461   5.421557   5.350422   3.192018   1.386320
    17  C    5.527419   6.662682   6.685090   4.512354   2.409885
    18  C    6.372717   7.488784   7.435123   5.206332   2.828517
    19  C    8.195156   9.414094   9.507153   7.324848   5.072524
    20  C    8.665217   9.787274   9.708246   7.489729   5.075461
    21  C    6.209690   7.185906   6.971109   4.777037   2.413790
    22  C    5.208774   6.034746   5.690346   3.542242   1.382615
    23  S    2.811266   3.145144   4.513726   5.059064   6.747275
    24  H    2.991865   4.276919   4.930753   3.560949   3.606270
    25  H    4.192911   5.492993   6.396408   5.231921   5.148366
    26  H    3.614216   5.008196   5.760404   4.303505   4.005900
    27  H    5.558173   5.990267   7.353019   7.765371   9.104797
    28  H    5.843646   6.590870   7.944638   7.930349   8.865508
    29  H    4.246205   4.493425   3.652272   1.982577   2.081286
    30  H    2.171103   1.071605   2.141004   3.726960   6.075149
    31  H    3.344218   2.135696   1.076897   3.206303   5.636402
    32  H    4.011193   4.997892   5.008823   3.075670   2.130022
    33  H    5.967611   7.150176   7.287390   5.215112   3.362675
    34  H    9.180609  10.423119  10.540671   8.353684   6.076381
    35  H    7.730498   9.005229   9.239052   7.137039   5.106470
    36  H    8.404874   9.549494   9.538725   7.367698   5.107850
    37  H    9.539597  10.710423  10.694677   8.476680   6.078449
    38  H    9.010544  10.039790   9.813534   7.594665   5.125391
    39  H    8.517247   9.621922   9.560672   7.397260   5.096189
    40  H    7.065370   8.003137   7.748538   5.617995   3.365150
    41  H    5.474972   6.124490   5.638082   3.698014   2.128544
    42  X    5.192221   5.796761   7.167841   7.369370   8.551068
    43  X    5.919107   6.546393   7.852880   7.962210   9.014294
    44  X    8.979461   8.793001   9.876745  10.971844  12.727121
    45  O    6.696950   6.819554   8.093982   8.854834  10.422621
    46  H    6.697568   6.742838   7.942843   8.759794  10.372600
    47  H    7.543797   7.596770   8.863995   9.722223  11.334346
                   16         17         18         19         20
    16  C    0.000000
    17  C    1.380322   0.000000
    18  C    2.426454   1.401783   0.000000
    19  C    4.209527   2.835567   2.438632   0.000000
    20  C    4.855712   3.728854   2.437518   2.455138   0.000000
    21  C    2.754602   2.385622   1.397603   3.722652   2.830449
    22  C    2.372392   2.748235   2.422737   4.850831   4.211949
    23  S    6.619549   7.503971   8.449230   9.840648  10.651515
    24  H    3.661493   4.140040   4.563235   6.250098   6.477403
    25  H    4.879288   4.998609   5.398772   6.520966   7.003044
    26  H    3.417446   3.617937   4.373323   5.478231   6.347398
    27  H    8.709952   9.309891  10.267559  11.181477  12.279729
    28  H    8.390320   8.768693   9.606153  10.330522  11.412598
    29  H    3.189123   4.379868   4.775164   7.005973   6.822008
    30  H    6.425135   7.634072   8.480547  10.345673  10.768230
    31  H    6.325340   7.678326   8.407492  10.507442  10.653208
    32  H    1.073683   2.124600   3.391834   4.821697   5.804847
    33  H    2.106992   1.071396   2.154804   2.511621   4.101388
    34  H    5.271668   3.894670   3.332846   1.080754   2.520941
    35  H    4.066553   2.737216   2.762772   1.082781   3.319962
    36  H    4.191092   2.924259   2.764923   1.090235   3.004965
    37  H    5.731062   4.497646   3.332323   2.526787   1.080790
    38  H    5.027847   4.028430   2.772413   2.996866   1.090482
    39  H    5.098283   4.123901   2.751294   3.323601   1.082802
    40  H    3.825084   3.372055   2.153336   4.097842   2.506606
    41  H    3.351094   3.824229   3.388696   5.801333   4.824115
    42  X    8.175175   8.704357   9.580371  10.504376  11.512800
    43  X    8.401556   8.866535   9.903587  10.527653  11.881036
    44  X   12.296126  13.093530  14.279577  15.124615  16.505140
    45  O   10.004576  10.709303  11.787424  12.674824  13.914078
    46  H    9.922614  10.675688  11.822033  12.699104  14.016165
    47  H   10.938966  11.640766  12.703177  13.582418  14.808820
                   21         22         23         24         25
    21  C    0.000000
    22  C    1.384425   0.000000
    23  S    8.544351   7.755138   0.000000
    24  H    4.511326   4.050564   4.448925   0.000000
    25  H    5.645859   5.514653   4.586788   1.772937   0.000000
    26  H    4.842269   4.669654   4.524064   1.742041   1.756301
    27  H   10.606576  10.058595   2.850739   6.339681   5.665351
    28  H   10.029435   9.674131   3.573949   5.783012   4.699512
    29  H    4.075289   2.757190   7.037162   4.869040   6.593760
    30  H    8.204331   7.074274   2.777447   4.965367   5.957184
    31  H    7.879022   6.556312   5.148345   5.967379   7.411519
    32  H    3.828202   3.348315   6.058979   3.861221   4.987623
    33  H    3.370085   3.818967   7.644894   4.627227   5.187075
    34  H    4.491927   5.727342  10.740275   7.070284   7.183295
    35  H    4.135847   5.107541   9.132917   5.781691   5.854293
    36  H    4.001845   5.005720  10.150902   6.790733   7.218484
    37  H    3.890256   5.273188  11.379122   7.234347   7.551244
    38  H    2.916285   4.203105  11.176192   7.075282   7.793923
    39  H    2.731045   4.060153  10.509235   6.171700   6.703021
    40  H    1.071266   2.111335   9.398248   5.209005   6.263402
    41  H    2.127147   1.076059   8.113559   4.497073   6.050728
    42  X    9.906209   9.418611   2.705129   5.572519   4.766577
    43  X   10.430859  10.013646   3.539760   6.458219   5.656234
    44  X   14.650448  13.919821   6.493647  10.773557  10.448272
    45  O   12.144384  11.503430   3.972724   8.039849   7.551313
    46  H   12.200397  11.523885   4.137670   8.278042   7.928518
    47  H   13.046238  12.399604   4.786844   8.877716   8.337750
                   26         27         28         29         30
    26  H    0.000000
    27  H    5.942230   0.000000
    28  H    5.244835   1.676824   0.000000
    29  H    5.571577   9.712542   9.797042   0.000000
    30  H    5.652405   5.507855   6.318984   5.539644   0.000000
    31  H    6.826672   7.932582   8.675533   4.298133   2.477184
    32  H    3.356034   8.115855   7.930797   3.438259   5.951332
    33  H    3.698020   9.199512   8.610101   5.249062   8.065221
    34  H    6.299649  11.944912  10.992931   8.008204  11.342248
    35  H    4.774063  10.296122   9.411202   7.106820   9.879367
    36  H    5.986734  11.587599  10.855694   6.883094  10.506693
    37  H    6.958242  12.830491  11.867488   7.871942  11.670654
    38  H    7.023712  12.962119  12.191896   6.653375  11.059252
    39  H    6.289714  12.168899  11.271389   6.790305  10.580780
    40  H    5.677798  11.440834  10.797865   4.785148   9.009205
    41  H    5.415367  10.536749  10.210438   2.693550   7.144578
    42  X    5.217288   0.995477   0.997373   9.292725   5.434599
    43  X    5.659114   1.500000   1.800256   9.820964   6.242041
    44  X   10.291809   5.000003   6.474209  12.821300   8.021224
    45  O    7.592355   2.006800   3.535479  10.790870   6.162578
    46  H    7.766910   2.688008   4.213310  10.651703   6.099484
    47  H    8.474477   2.688009   4.108184  11.668452   6.871073
                   31         32         33         34         35
    31  H    0.000000
    32  H    5.972398   0.000000
    33  H    8.289999   2.409846   0.000000
    34  H   11.546376   5.896112   3.562406   0.000000
    35  H   10.268686   4.511147   2.122143   1.740261   0.000000
    36  H   10.497748   4.708593   2.526134   1.759527   1.761568
    37  H   11.658678   6.616560   4.665095   2.118856   3.393135
    38  H   10.702368   5.987823   4.480088   3.124824   3.983796
    39  H   10.496441   6.107110   4.652107   3.400854   4.016855
    40  H    8.616324   4.898694   4.282479   4.662034   4.668237
    41  H    6.401765   4.242634   4.895015   6.613733   6.118208
    42  X    7.838170   7.675490   8.626349  11.238105   9.630360
    43  X    8.524560   7.741494   8.591623  11.256946   9.576566
    44  X   10.019075  11.435570  12.881232  15.967472  14.234480
    45  O    8.482479   9.268801  10.547647  13.481044  11.780444
    46  H    8.286208   9.115550  10.489013  13.538553  11.816294
    47  H    9.192161  10.211452  11.479976  14.373314  12.678639
                   36         37         38         39         40
    36  H    0.000000
    37  H    3.149493   0.000000
    38  H    3.183835   1.759807   0.000000
    39  H    3.989113   1.740665   1.761726   0.000000
    40  H    4.452499   3.559365   2.500359   2.129375   0.000000
    41  H    5.966801   5.897593   4.719343   4.505150   2.411481
    42  X   10.976863  12.048222  12.230797  11.358247  10.699299
    43  X   10.893108  12.354015  12.580802  11.885569  11.310354
    44  X   15.279648  17.098255  17.045035  16.548552  15.599086
    45  O   12.964516  14.487235  14.532139  13.876432  13.038955
    46  H   12.910436  14.608034  14.583602  14.036718  13.134740
    47  H   13.888325  15.372541  15.441483  14.750677  13.926643
                   41         42         43         44         45
    41  H    0.000000
    42  X    9.895695   0.000000
    43  X   10.626435   1.800271   0.000000
    44  X   14.380179   5.995480   5.220156   0.000000
    45  O   11.977192   3.002277   2.505444   2.993203   0.000000
    46  H   12.017185   3.654177   2.892418   2.534847   0.947400
    47  H   12.849709   3.654178   3.253413   2.534848   0.947400
                   46         47
    46  H    0.000000
    47  H    1.508660   0.000000
 Symmetry turned off by external request.
 Stoichiometry    C16H20N6OS
 Framework group  C1[X(C16H20N6OS)]
 Deg. of freedom   126
 Full point group                 C1      NOp   1
 Rotational constants (GHZ):      0.3479036      0.0995486      0.0816262
 Standard basis: 6-31G(d) (6D, 7F)
 Integral buffers will be    131072 words long.
 Raffenetti 1 integral format.
 Two-electron integral symmetry is turned off.
   404 basis functions,   776 primitive gaussians,   404 cartesian basis functions
    91 alpha electrons       91 beta electrons
       nuclear repulsion energy      2096.3244727877 Hartrees.
 NAtoms=   44 NActive=   44 NUniq=   44 SFac= 7.50D-01 NAtFMM=   80 NAOKFM=F Big=F
 One-electron integrals computed using PRISM.
 NBasis=   404 RedAO= T  NBF=   404
 NBsUse=   404 1.00D-06 NBFU=   404
 Harris functional with IExCor=  205 diagonalized for initial guess.
 ExpMin= 1.17D-01 ExpMax= 2.19D+04 ExpMxC= 3.30D+03 IAcc=1 IRadAn=         1 AccDes= 0.00D+00
 HarFok:  IExCor=  205 AccDes= 0.00D+00 IRadAn=         1 IDoV= 1
 ScaDFX=  1.000000  1.000000  1.000000  1.000000
 FoFCou: FMM=F IPFlag=           0 FMFlag=      100000 FMFlg1=           0
         NFxFlg=           0 DoJE=T BraDBF=F KetDBF=T FulRan=T
         Omega=  0.000000  0.000000  1.000000  0.000000  0.000000 ICntrl=     500 IOpCl=  0
         NMat0=    1 NMatS0=    1 NMatT0=    0 NMatD0=    1 NMtDS0=    0 NMtDT0=    0
         I1Cent=           4 NGrid=           0.
 Symmetry not used in FoFCou.
 Requested convergence on RMS density matrix=1.00D-08 within 128 cycles.
 Requested convergence on MAX density matrix=1.00D-06.
 Requested convergence on             energy=1.00D-06.
 No special actions if energy rises.
 Integral accuracy reduced to 1.0D-05 until final iterations.
 Initial convergence to 1.0D-05 achieved.  Increase integral accuracy.
 SCF Done:  E(RHF) =  -1416.59752051     A.U. after   16 cycles
             Convg  =    0.5382D-08             -V/T =  2.0010

 **********************************************************************

            Population analysis using the SCF density.

 **********************************************************************

 Alpha  occ. eigenvalues --  -91.96060 -20.59363 -15.56873 -15.56637 -15.56539
 Alpha  occ. eigenvalues --  -15.53860 -15.53672 -15.53373 -11.33697 -11.33450
 Alpha  occ. eigenvalues --  -11.29560 -11.27680 -11.26945 -11.26729 -11.25048
 Alpha  occ. eigenvalues --  -11.24896 -11.24884 -11.23939 -11.22369 -11.22135
 Alpha  occ. eigenvalues --  -11.21412 -11.21382 -11.20975 -11.19685  -8.97197
 Alpha  occ. eigenvalues --   -6.65466  -6.65356  -6.65173  -1.38140  -1.32586
 Alpha  occ. eigenvalues --   -1.29662  -1.25174  -1.22465  -1.19727  -1.18373
 Alpha  occ. eigenvalues --   -1.12513  -1.07105  -1.02915  -1.01456  -1.01084
 Alpha  occ. eigenvalues --   -0.99135  -0.96633  -0.92050  -0.89594  -0.87031
 Alpha  occ. eigenvalues --   -0.85223  -0.82307  -0.79000  -0.77805  -0.75504
 Alpha  occ. eigenvalues --   -0.74846  -0.72291  -0.71548  -0.69134  -0.68115
 Alpha  occ. eigenvalues --   -0.66154  -0.64961  -0.64447  -0.63496  -0.62582
 Alpha  occ. eigenvalues --   -0.61580  -0.60532  -0.59736  -0.58682  -0.58268
 Alpha  occ. eigenvalues --   -0.58010  -0.56989  -0.56722  -0.55577  -0.55231
 Alpha  occ. eigenvalues --   -0.54656  -0.53749  -0.53389  -0.52699  -0.52414
 Alpha  occ. eigenvalues --   -0.52064  -0.50144  -0.48208  -0.47402  -0.46214
 Alpha  occ. eigenvalues --   -0.45800  -0.43757  -0.41110  -0.40909  -0.39773
 Alpha  occ. eigenvalues --   -0.38300  -0.36898  -0.32762  -0.32088  -0.28108
 Alpha  occ. eigenvalues --   -0.26446
 Alpha virt. eigenvalues --    0.10428   0.15022   0.15403   0.16800   0.17658
 Alpha virt. eigenvalues --    0.19744   0.20552   0.23414   0.25151   0.25882
 Alpha virt. eigenvalues --    0.26601   0.27047   0.27814   0.27971   0.28265
 Alpha virt. eigenvalues --    0.28503   0.29375   0.30370   0.31684   0.32662
 Alpha virt. eigenvalues --    0.33576   0.33716   0.33961   0.35147   0.35420
 Alpha virt. eigenvalues --    0.36054   0.36677   0.37143   0.39095   0.39588
 Alpha virt. eigenvalues --    0.40573   0.40778   0.42225   0.42341   0.43549
 Alpha virt. eigenvalues --    0.45000   0.46488   0.47100   0.48807   0.50235
 Alpha virt. eigenvalues --    0.52206   0.52859   0.53806   0.53884   0.55208
 Alpha virt. eigenvalues --    0.56820   0.58254   0.58582   0.60718   0.60971
 Alpha virt. eigenvalues --    0.62456   0.64296   0.68347   0.69226   0.69423
 Alpha virt. eigenvalues --    0.70653   0.71278   0.73378   0.74515   0.74953
 Alpha virt. eigenvalues --    0.75168   0.76448   0.77489   0.77996   0.79001
 Alpha virt. eigenvalues --    0.79367   0.80170   0.80474   0.80918   0.82049
 Alpha virt. eigenvalues --    0.83037   0.83653   0.83882   0.84540   0.84989
 Alpha virt. eigenvalues --    0.85899   0.86039   0.87007   0.87749   0.89977
 Alpha virt. eigenvalues --    0.90305   0.91722   0.92351   0.93443   0.94405
 Alpha virt. eigenvalues --    0.94930   0.95296   0.96468   0.97104   0.97794
 Alpha virt. eigenvalues --    0.98528   0.99118   0.99571   1.00452   1.01411
 Alpha virt. eigenvalues --    1.01553   1.04319   1.04773   1.05802   1.06456
 Alpha virt. eigenvalues --    1.07466   1.07911   1.08463   1.10192   1.11005
 Alpha virt. eigenvalues --    1.11665   1.12476   1.12838   1.13040   1.13275
 Alpha virt. eigenvalues --    1.13659   1.14015   1.14155   1.15064   1.15752
 Alpha virt. eigenvalues --    1.15873   1.16502   1.17459   1.17637   1.18126
 Alpha virt. eigenvalues --    1.19045   1.19990   1.20798   1.21127   1.21845
 Alpha virt. eigenvalues --    1.22522   1.23111   1.23883   1.24325   1.24738
 Alpha virt. eigenvalues --    1.25482   1.25607   1.26345   1.27811   1.28546
 Alpha virt. eigenvalues --    1.29010   1.29592   1.29983   1.32030   1.32356
 Alpha virt. eigenvalues --    1.33060   1.33775   1.34440   1.35785   1.36222
 Alpha virt. eigenvalues --    1.37917   1.39722   1.39971   1.42402   1.44005
 Alpha virt. eigenvalues --    1.44665   1.45661   1.47014   1.48327   1.48418
 Alpha virt. eigenvalues --    1.50016   1.51782   1.52842   1.54584   1.55907
 Alpha virt. eigenvalues --    1.58083   1.60872   1.62517   1.64220   1.64453
 Alpha virt. eigenvalues --    1.66247   1.66441   1.68113   1.68401   1.71348
 Alpha virt. eigenvalues --    1.74656   1.75421   1.75890   1.76599   1.77408
 Alpha virt. eigenvalues --    1.78055   1.78898   1.80012   1.80715   1.81369
 Alpha virt. eigenvalues --    1.82843   1.85295   1.85927   1.87195   1.89911
 Alpha virt. eigenvalues --    1.90404   1.91454   1.94881   1.99489   2.01114
 Alpha virt. eigenvalues --    2.02763   2.03029   2.04657   2.09776   2.10885
 Alpha virt. eigenvalues --    2.11280   2.11518   2.13376   2.14414   2.15383
 Alpha virt. eigenvalues --    2.15655   2.17629   2.19375   2.19763   2.23398
 Alpha virt. eigenvalues --    2.23691   2.24006   2.24839   2.25582   2.27303
 Alpha virt. eigenvalues --    2.27590   2.28873   2.30417   2.31416   2.33544
 Alpha virt. eigenvalues --    2.35712   2.36646   2.39326   2.39600   2.40792
 Alpha virt. eigenvalues --    2.43061   2.44214   2.46590   2.47717   2.48734
 Alpha virt. eigenvalues --    2.49138   2.50622   2.51284   2.51845   2.53640
 Alpha virt. eigenvalues --    2.55153   2.55870   2.58166   2.59032   2.59925
 Alpha virt. eigenvalues --    2.60165   2.60302   2.60904   2.62347   2.63868
 Alpha virt. eigenvalues --    2.65305   2.65850   2.66836   2.67882   2.69883
 Alpha virt. eigenvalues --    2.72182   2.72406   2.74724   2.76723   2.78919
 Alpha virt. eigenvalues --    2.79740   2.81437   2.83910   2.85036   2.87062
 Alpha virt. eigenvalues --    2.87919   2.88895   2.93238   2.94067   2.94471
 Alpha virt. eigenvalues --    2.95951   2.96812   2.97182   2.98558   2.99817
 Alpha virt. eigenvalues --    3.01704   3.02303   3.02817   3.05833   3.07679
 Alpha virt. eigenvalues --    3.09665   3.12447   3.14311   3.16116   3.16508
 Alpha virt. eigenvalues --    3.22132   3.24177   3.26326   3.28835   3.30012
 Alpha virt. eigenvalues --    3.35822   3.41635   3.41975   3.53510   3.60288
 Alpha virt. eigenvalues --    3.61286   3.73425   3.86950   3.88258   4.06652
 Alpha virt. eigenvalues --    4.38224   4.39471   4.48160   4.51337   4.53129
 Alpha virt. eigenvalues --    4.54485   4.56074   4.57110   4.58684   4.59464
 Alpha virt. eigenvalues --    4.65950   4.68697   4.70400   4.72802   4.77123
 Alpha virt. eigenvalues --    4.78402   4.80821   4.81832   4.83941   4.92987
 Alpha virt. eigenvalues --    4.95540   5.09420   5.22737
          Condensed to atoms (all electrons):
              1          2          3          4          5          6
     1  N    6.925363  -0.082013   0.000000   0.000000   0.000000   0.000001
     2  N   -0.082013   7.131819   0.000000   0.000000   0.000000   0.000000
     3  N    0.000000   0.000000   6.950818  -0.109818   0.000000  -0.102973
     4  N    0.000000   0.000000  -0.109818   7.383194   0.000000  -0.103100
     5  N    0.000000   0.000000   0.000000   0.000000   7.246086   0.000000
     6  N    0.000001   0.000000  -0.102973  -0.103100   0.000000   7.062013
     7  C   -0.063190  -0.000059  -0.000003   0.000024   0.000000  -0.012521
     8  C    0.434525   0.003552   0.000021  -0.000006   0.000000  -0.002068
     9  C    0.536138   0.324540   0.000000   0.000000   0.000000  -0.000021
    10  C   -0.089217   0.002514  -0.000086  -0.000133   0.000000  -0.085618
    11  C    0.004905  -0.000030  -0.026502   0.002066   0.000000   0.504998
    12  C   -0.000121   0.000000  -0.052366   0.000450   0.000000  -0.072557
    13  C    0.000001   0.000000   0.487111   0.002023   0.000000  -0.013752
    14  C   -0.000002   0.000000   0.515499   0.318370   0.000000   0.499190
    15  C    0.000000   0.000000   0.002650   0.197499   0.000136   0.002046
    16  C    0.000000   0.000000  -0.000005  -0.049508   0.003556  -0.002724
    17  C    0.000000   0.000000  -0.000001   0.004713  -0.060195  -0.000303
    18  C    0.000000   0.000000   0.000000   0.000192   0.289853   0.000020
    19  C    0.000000   0.000000   0.000000   0.000000   0.266381   0.000000
    20  C    0.000000   0.000000   0.000000   0.000000   0.267624   0.000000
    21  C    0.000000   0.000000   0.000000   0.004347  -0.061049  -0.000039
    22  C    0.000000   0.000000  -0.000132  -0.058791   0.003704  -0.000242
    23  S   -0.081061  -0.066571  -0.000005   0.000002   0.000000   0.002292
    24  H    0.002891   0.000001   0.000012  -0.000163   0.000000   0.002743
    25  H   -0.000748  -0.000018   0.000000  -0.000001   0.000000   0.000555
    26  H    0.000524   0.000000   0.000000   0.000002  -0.000003   0.000013
    27  H    0.001869   0.301291   0.000000   0.000000   0.000000   0.000000
    28  H    0.004435   0.323719   0.000000   0.000000   0.000000   0.000000
    29  H    0.000000   0.000000   0.006839   0.326278   0.000000   0.003822
    30  H   -0.000005   0.000000   0.002726   0.000015   0.000000   0.002526
    31  H    0.000000   0.000000  -0.043101  -0.000051   0.000000  -0.000574
    32  H    0.000000   0.000000  -0.000015  -0.003419  -0.000070   0.001842
    33  H    0.000000   0.000000   0.000000  -0.000104  -0.004010  -0.000007
    34  H    0.000000   0.000000   0.000000   0.000000  -0.036849   0.000000
    35  H    0.000000   0.000000   0.000000   0.000000  -0.044588   0.000000
    36  H    0.000000   0.000000   0.000000   0.000000  -0.057736   0.000000
    37  H    0.000000   0.000000   0.000000   0.000000  -0.036939   0.000000
    38  H    0.000000   0.000000   0.000000   0.000000  -0.058121   0.000000
    39  H    0.000000   0.000000   0.000000   0.000000  -0.044595   0.000000
    40  H    0.000000   0.000000   0.000000  -0.000114  -0.004183   0.000000
    41  H    0.000000   0.000000  -0.000025   0.000162  -0.000074  -0.000027
    42  O   -0.000003  -0.009847   0.000000   0.000000   0.000000   0.000000
    43  H    0.000000   0.000459   0.000000   0.000000   0.000000   0.000000
    44  H    0.000000   0.000474   0.000000   0.000000   0.000000   0.000000
              7          8          9         10         11         12
     1  N   -0.063190   0.434525   0.536138  -0.089217   0.004905  -0.000121
     2  N   -0.000059   0.003552   0.324540   0.002514  -0.000030   0.000000
     3  N   -0.000003   0.000021   0.000000  -0.000086  -0.026502  -0.052366
     4  N    0.000024  -0.000006   0.000000  -0.000133   0.002066   0.000450
     5  N    0.000000   0.000000   0.000000   0.000000   0.000000   0.000000
     6  N   -0.012521  -0.002068  -0.000021  -0.085618   0.504998  -0.072557
     7  C    5.098144   0.356990   0.006383  -0.057536   0.000261   0.000106
     8  C    0.356990   4.558856  -0.087058   0.592251  -0.009787   0.002980
     9  C    0.006383  -0.087058   4.594221  -0.053544   0.002628  -0.000043
    10  C   -0.057536   0.592251  -0.053544   5.508244   0.370627  -0.072081
    11  C    0.000261  -0.009787   0.002628   0.370627   4.379845   0.507438
    12  C    0.000106   0.002980  -0.000043  -0.072081   0.507438   5.244000
    13  C    0.000002  -0.000091  -0.000003   0.003317  -0.045461   0.517304
    14  C   -0.000332   0.000065   0.000002   0.005178  -0.049598  -0.027946
    15  C   -0.000123  -0.000030   0.000000   0.000022   0.000097   0.000010
    16  C   -0.000425  -0.000006   0.000000   0.000058  -0.000182  -0.000004
    17  C   -0.000145   0.000009   0.000000   0.000002   0.000000   0.000000
    18  C   -0.000003   0.000001   0.000000   0.000000   0.000000   0.000000
    19  C    0.000000   0.000000   0.000000   0.000000   0.000000   0.000000
    20  C    0.000000   0.000000   0.000000   0.000000   0.000000   0.000000
    21  C    0.000003   0.000000   0.000000   0.000000   0.000000   0.000000
    22  C   -0.000040   0.000000   0.000000   0.000001  -0.000013  -0.000001
    23  S    0.002589  -0.082958   0.338239   0.266901  -0.041948  -0.000859
    24  H    0.391476  -0.031024  -0.000127  -0.004132   0.000258   0.000074
    25  H    0.382981  -0.039187   0.000066   0.004186  -0.000280   0.000004
    26  H    0.387804  -0.034664  -0.000174  -0.003524   0.000932   0.000014
    27  H    0.000002  -0.000139  -0.017874   0.000057   0.000000   0.000000
    28  H   -0.000021   0.000289  -0.026307  -0.000080   0.000000   0.000000
    29  H    0.000000   0.000000   0.000000   0.000006  -0.000104   0.000019
    30  H   -0.000001   0.000017   0.000012  -0.000905  -0.024814   0.374385
    31  H    0.000000   0.000001   0.000000  -0.000053   0.002457  -0.052051
    32  H    0.000010   0.000001   0.000000  -0.000026  -0.000007   0.000008
    33  H    0.000000   0.000000   0.000000   0.000000   0.000000   0.000000
    34  H    0.000000   0.000000   0.000000   0.000000   0.000000   0.000000
    35  H    0.000000   0.000000   0.000000   0.000000   0.000000   0.000000
    36  H    0.000000   0.000000   0.000000   0.000000   0.000000   0.000000
    37  H    0.000000   0.000000   0.000000   0.000000   0.000000   0.000000
    38  H    0.000000   0.000000   0.000000   0.000000   0.000000   0.000000
    39  H    0.000000   0.000000   0.000000   0.000000   0.000000   0.000000
    40  H    0.000000   0.000000   0.000000   0.000000   0.000000   0.000000
    41  H    0.000000   0.000000   0.000000   0.000000   0.000000   0.000000
    42  O    0.000000   0.000000  -0.000248   0.000002   0.000000   0.000000
    43  H    0.000000   0.000000   0.000001  -0.000001   0.000000   0.000000
    44  H    0.000000   0.000000  -0.000004   0.000000   0.000000   0.000000
             13         14         15         16         17         18
     1  N    0.000001  -0.000002   0.000000   0.000000   0.000000   0.000000
     2  N    0.000000   0.000000   0.000000   0.000000   0.000000   0.000000
     3  N    0.487111   0.515499   0.002650  -0.000005  -0.000001   0.000000
     4  N    0.002023   0.318370   0.197499  -0.049508   0.004713   0.000192
     5  N    0.000000   0.000000   0.000136   0.003556  -0.060195   0.289853
     6  N   -0.013752   0.499190   0.002046  -0.002724  -0.000303   0.000020
     7  C    0.000002  -0.000332  -0.000123  -0.000425  -0.000145  -0.000003
     8  C   -0.000091   0.000065  -0.000030  -0.000006   0.000009   0.000001
     9  C   -0.000003   0.000002   0.000000   0.000000   0.000000   0.000000
    10  C    0.003317   0.005178   0.000022   0.000058   0.000002   0.000000
    11  C   -0.045461  -0.049598   0.000097  -0.000182   0.000000   0.000000
    12  C    0.517304  -0.027946   0.000010  -0.000004   0.000000   0.000000
    13  C    4.615101  -0.071893  -0.000068   0.000000   0.000000   0.000000
    14  C   -0.071893   3.994586  -0.028083  -0.001820  -0.000068   0.000017
    15  C   -0.000068  -0.028083   4.550411   0.588364  -0.045281  -0.023533
    16  C    0.000000  -0.001820   0.588364   4.859476   0.530418  -0.032883
    17  C    0.000000  -0.000068  -0.045281   0.530418   5.023882   0.563480
    18  C    0.000000   0.000017  -0.023533  -0.032883   0.563480   4.422107
    19  C    0.000000   0.000000   0.000010  -0.000254  -0.009713  -0.046663
    20  C    0.000000   0.000000   0.000010  -0.000067   0.002411  -0.047441
    21  C    0.000000  -0.000047  -0.049123  -0.039799  -0.039744   0.575301
    22  C    0.000004   0.001184   0.593389  -0.047355  -0.041169  -0.034172
    23  S    0.000268  -0.000109   0.000000   0.000000   0.000000   0.000000
    24  H   -0.000005   0.000244   0.000730   0.000063  -0.000130  -0.000028
    25  H    0.000000   0.000017   0.000006   0.000021   0.000005   0.000000
    26  H    0.000000  -0.000122  -0.000050   0.000890   0.001094   0.000033
    27  H    0.000000   0.000000   0.000000   0.000000   0.000000   0.000000
    28  H    0.000000   0.000000   0.000000   0.000000   0.000000   0.000000
    29  H    0.000368  -0.021650  -0.023782   0.001663  -0.000010  -0.000001
    30  H   -0.022686   0.000460   0.000000   0.000000   0.000000   0.000000
    31  H    0.406832   0.003568   0.000003   0.000000   0.000000   0.000000
    32  H   -0.000003   0.002272  -0.023798   0.376419  -0.030803   0.001600
    33  H    0.000000  -0.000003   0.001663  -0.025786   0.380090  -0.031081
    34  H    0.000000   0.000000   0.000000   0.000007   0.000473   0.003335
    35  H    0.000000   0.000000  -0.000007   0.000160  -0.001297  -0.003415
    36  H    0.000000   0.000000  -0.000006  -0.000235   0.002172   0.002150
    37  H    0.000000   0.000000   0.000000   0.000002  -0.000053   0.003281
    38  H    0.000000   0.000000  -0.000005  -0.000019   0.000215   0.002079
    39  H    0.000000   0.000000  -0.000009   0.000006  -0.000060  -0.003199
    40  H    0.000000   0.000000   0.001764   0.000281   0.002821  -0.030229
    41  H    0.000000   0.000210  -0.033037   0.003330   0.000255   0.001623
    42  O    0.000000   0.000000   0.000000   0.000000   0.000000   0.000000
    43  H    0.000000   0.000000   0.000000   0.000000   0.000000   0.000000
    44  H    0.000000   0.000000   0.000000   0.000000   0.000000   0.000000
             19         20         21         22         23         24
     1  N    0.000000   0.000000   0.000000   0.000000  -0.081061   0.002891
     2  N    0.000000   0.000000   0.000000   0.000000  -0.066571   0.000001
     3  N    0.000000   0.000000   0.000000  -0.000132  -0.000005   0.000012
     4  N    0.000000   0.000000   0.004347  -0.058791   0.000002  -0.000163
     5  N    0.266381   0.267624  -0.061049   0.003704   0.000000   0.000000
     6  N    0.000000   0.000000  -0.000039  -0.000242   0.002292   0.002743
     7  C    0.000000   0.000000   0.000003  -0.000040   0.002589   0.391476
     8  C    0.000000   0.000000   0.000000   0.000000  -0.082958  -0.031024
     9  C    0.000000   0.000000   0.000000   0.000000   0.338239  -0.000127
    10  C    0.000000   0.000000   0.000000   0.000001   0.266901  -0.004132
    11  C    0.000000   0.000000   0.000000  -0.000013  -0.041948   0.000258
    12  C    0.000000   0.000000   0.000000  -0.000001  -0.000859   0.000074
    13  C    0.000000   0.000000   0.000000   0.000004   0.000268  -0.000005
    14  C    0.000000   0.000000  -0.000047   0.001184  -0.000109   0.000244
    15  C    0.000010   0.000010  -0.049123   0.593389   0.000000   0.000730
    16  C   -0.000254  -0.000067  -0.039799  -0.047355   0.000000   0.000063
    17  C   -0.009713   0.002411  -0.039744  -0.041169   0.000000  -0.000130
    18  C   -0.046663  -0.047441   0.575301  -0.034172   0.000000  -0.000028
    19  C    4.931773  -0.051629   0.002279  -0.000074   0.000000   0.000000
    20  C   -0.051629   4.931115  -0.009907  -0.000285   0.000000   0.000000
    21  C    0.002279  -0.009907   5.013411   0.527364   0.000000   0.000013
    22  C   -0.000074  -0.000285   0.527364   4.901731   0.000000   0.000277
    23  S    0.000000   0.000000   0.000000   0.000000  15.401195   0.000097
    24  H    0.000000   0.000000   0.000013   0.000277   0.000097   0.476937
    25  H    0.000000   0.000000  -0.000001   0.000000  -0.000037  -0.023812
    26  H   -0.000001   0.000000  -0.000012  -0.000041   0.000031  -0.022935
    27  H    0.000000   0.000000   0.000000   0.000000   0.000278   0.000000
    28  H    0.000000   0.000000   0.000000   0.000000   0.003696   0.000000
    29  H    0.000000   0.000000   0.000064  -0.002040   0.000000   0.000001
    30  H    0.000000   0.000000   0.000000   0.000000   0.000162  -0.000001
    31  H    0.000000   0.000000   0.000000   0.000000  -0.000013   0.000000
    32  H   -0.000005   0.000002   0.000208   0.003521   0.000000  -0.000005
    33  H    0.000393  -0.000057   0.002782   0.000359   0.000000  -0.000001
    34  H    0.403993  -0.007505  -0.000049   0.000002   0.000000   0.000000
    35  H    0.404968   0.003933  -0.000091   0.000005   0.000000   0.000000
    36  H    0.390852   0.000674   0.000312  -0.000019   0.000000   0.000000
    37  H   -0.007483   0.404237   0.000492   0.000008   0.000000   0.000000
    38  H    0.000592   0.390733   0.002194  -0.000214   0.000000   0.000000
    39  H    0.003984   0.404743  -0.001068   0.000125   0.000000   0.000000
    40  H   -0.000060   0.000466   0.379560  -0.026020   0.000000   0.000000
    41  H    0.000002  -0.000004  -0.027417   0.376750   0.000000   0.000000
    42  O    0.000000   0.000000   0.000000   0.000000   0.001860   0.000000
    43  H    0.000000   0.000000   0.000000   0.000000   0.000036   0.000000
    44  H    0.000000   0.000000   0.000000   0.000000  -0.000030   0.000000
             25         26         27         28         29         30
     1  N   -0.000748   0.000524   0.001869   0.004435   0.000000  -0.000005
     2  N   -0.000018   0.000000   0.301291   0.323719   0.000000   0.000000
     3  N    0.000000   0.000000   0.000000   0.000000   0.006839   0.002726
     4  N   -0.000001   0.000002   0.000000   0.000000   0.326278   0.000015
     5  N    0.000000  -0.000003   0.000000   0.000000   0.000000   0.000000
     6  N    0.000555   0.000013   0.000000   0.000000   0.003822   0.002526
     7  C    0.382981   0.387804   0.000002  -0.000021   0.000000  -0.000001
     8  C   -0.039187  -0.034664  -0.000139   0.000289   0.000000   0.000017
     9  C    0.000066  -0.000174  -0.017874  -0.026307   0.000000   0.000012
    10  C    0.004186  -0.003524   0.000057  -0.000080   0.000006  -0.000905
    11  C   -0.000280   0.000932   0.000000   0.000000  -0.000104  -0.024814
    12  C    0.000004   0.000014   0.000000   0.000000   0.000019   0.374385
    13  C    0.000000   0.000000   0.000000   0.000000   0.000368  -0.022686
    14  C    0.000017  -0.000122   0.000000   0.000000  -0.021650   0.000460
    15  C    0.000006  -0.000050   0.000000   0.000000  -0.023782   0.000000
    16  C    0.000021   0.000890   0.000000   0.000000   0.001663   0.000000
    17  C    0.000005   0.001094   0.000000   0.000000  -0.000010   0.000000
    18  C    0.000000   0.000033   0.000000   0.000000  -0.000001   0.000000
    19  C    0.000000  -0.000001   0.000000   0.000000   0.000000   0.000000
    20  C    0.000000   0.000000   0.000000   0.000000   0.000000   0.000000
    21  C   -0.000001  -0.000012   0.000000   0.000000   0.000064   0.000000
    22  C    0.000000  -0.000041   0.000000   0.000000  -0.002040   0.000000
    23  S   -0.000037   0.000031   0.000278   0.003696   0.000000   0.000162
    24  H   -0.023812  -0.022935   0.000000   0.000000   0.000001  -0.000001
    25  H    0.520800  -0.025796   0.000000   0.000008   0.000000   0.000000
    26  H   -0.025796   0.507069   0.000000   0.000000   0.000000   0.000000
    27  H    0.000000   0.000000   0.249040  -0.013594   0.000000   0.000000
    28  H    0.000008   0.000000  -0.013594   0.322555   0.000000   0.000000
    29  H    0.000000   0.000000   0.000000   0.000000   0.309569  -0.000001
    30  H    0.000000   0.000000   0.000000   0.000000  -0.000001   0.448180
    31  H    0.000000   0.000000   0.000000   0.000000  -0.000035  -0.000103
    32  H    0.000000   0.000063   0.000000   0.000000  -0.000067   0.000000
    33  H    0.000000   0.000039   0.000000   0.000000   0.000002   0.000000
    34  H    0.000000   0.000000   0.000000   0.000000   0.000000   0.000000
    35  H    0.000000   0.000004   0.000000   0.000000   0.000000   0.000000
    36  H    0.000000   0.000000   0.000000   0.000000   0.000000   0.000000
    37  H    0.000000   0.000000   0.000000   0.000000   0.000000   0.000000
    38  H    0.000000   0.000000   0.000000   0.000000   0.000000   0.000000
    39  H    0.000000   0.000000   0.000000   0.000000   0.000000   0.000000
    40  H    0.000000   0.000000   0.000000   0.000000  -0.000001   0.000000
    41  H    0.000000   0.000000   0.000000   0.000000   0.001190   0.000000
    42  O    0.000000   0.000000   0.018429   0.000169   0.000000   0.000000
    43  H    0.000000   0.000000  -0.000469  -0.000011   0.000000   0.000000
    44  H    0.000000   0.000000  -0.000449  -0.000012   0.000000   0.000000
             31         32         33         34         35         36
     1  N    0.000000   0.000000   0.000000   0.000000   0.000000   0.000000
     2  N    0.000000   0.000000   0.000000   0.000000   0.000000   0.000000
     3  N   -0.043101  -0.000015   0.000000   0.000000   0.000000   0.000000
     4  N   -0.000051  -0.003419  -0.000104   0.000000   0.000000   0.000000
     5  N    0.000000  -0.000070  -0.004010  -0.036849  -0.044588  -0.057736
     6  N   -0.000574   0.001842  -0.000007   0.000000   0.000000   0.000000
     7  C    0.000000   0.000010   0.000000   0.000000   0.000000   0.000000
     8  C    0.000001   0.000001   0.000000   0.000000   0.000000   0.000000
     9  C    0.000000   0.000000   0.000000   0.000000   0.000000   0.000000
    10  C   -0.000053  -0.000026   0.000000   0.000000   0.000000   0.000000
    11  C    0.002457  -0.000007   0.000000   0.000000   0.000000   0.000000
    12  C   -0.052051   0.000008   0.000000   0.000000   0.000000   0.000000
    13  C    0.406832  -0.000003   0.000000   0.000000   0.000000   0.000000
    14  C    0.003568   0.002272  -0.000003   0.000000   0.000000   0.000000
    15  C    0.000003  -0.023798   0.001663   0.000000  -0.000007  -0.000006
    16  C    0.000000   0.376419  -0.025786   0.000007   0.000160  -0.000235
    17  C    0.000000  -0.030803   0.380090   0.000473  -0.001297   0.002172
    18  C    0.000000   0.001600  -0.031081   0.003335  -0.003415   0.002150
    19  C    0.000000  -0.000005   0.000393   0.403993   0.404968   0.390852
    20  C    0.000000   0.000002  -0.000057  -0.007505   0.003933   0.000674
    21  C    0.000000   0.000208   0.002782  -0.000049  -0.000091   0.000312
    22  C    0.000000   0.003521   0.000359   0.000002   0.000005  -0.000019
    23  S   -0.000013   0.000000   0.000000   0.000000   0.000000   0.000000
    24  H    0.000000  -0.000005  -0.000001   0.000000   0.000000   0.000000
    25  H    0.000000   0.000000   0.000000   0.000000   0.000000   0.000000
    26  H    0.000000   0.000063   0.000039   0.000000   0.000004   0.000000
    27  H    0.000000   0.000000   0.000000   0.000000   0.000000   0.000000
    28  H    0.000000   0.000000   0.000000   0.000000   0.000000   0.000000
    29  H   -0.000035  -0.000067   0.000002   0.000000   0.000000   0.000000
    30  H   -0.000103   0.000000   0.000000   0.000000   0.000000   0.000000
    31  H    0.474805   0.000000   0.000000   0.000000   0.000000   0.000000
    32  H    0.000000   0.456467  -0.001915   0.000000   0.000000  -0.000002
    33  H    0.000000  -0.001915   0.475851   0.000164  -0.002120  -0.000157
    34  H    0.000000   0.000000   0.000164   0.516585  -0.025341  -0.030677
    35  H    0.000000   0.000000  -0.002120  -0.025341   0.534341  -0.044141
    36  H    0.000000  -0.000002  -0.000157  -0.030677  -0.044141   0.577564
    37  H    0.000000   0.000000   0.000000   0.001857   0.000249  -0.000067
    38  H    0.000000   0.000000   0.000005  -0.000050  -0.000359   0.002403
    39  H    0.000000   0.000000  -0.000001   0.000241   0.000020  -0.000357
    40  H    0.000000   0.000011  -0.000124   0.000000  -0.000003   0.000009
    41  H    0.000000  -0.000132   0.000013   0.000000   0.000000   0.000000
    42  O    0.000000   0.000000   0.000000   0.000000   0.000000   0.000000
    43  H    0.000000   0.000000   0.000000   0.000000   0.000000   0.000000
    44  H    0.000000   0.000000   0.000000   0.000000   0.000000   0.000000
             37         38         39         40         41         42
     1  N    0.000000   0.000000   0.000000   0.000000   0.000000  -0.000003
     2  N    0.000000   0.000000   0.000000   0.000000   0.000000  -0.009847
     3  N    0.000000   0.000000   0.000000   0.000000  -0.000025   0.000000
     4  N    0.000000   0.000000   0.000000  -0.000114   0.000162   0.000000
     5  N   -0.036939  -0.058121  -0.044595  -0.004183  -0.000074   0.000000
     6  N    0.000000   0.000000   0.000000   0.000000  -0.000027   0.000000
     7  C    0.000000   0.000000   0.000000   0.000000   0.000000   0.000000
     8  C    0.000000   0.000000   0.000000   0.000000   0.000000   0.000000
     9  C    0.000000   0.000000   0.000000   0.000000   0.000000  -0.000248
    10  C    0.000000   0.000000   0.000000   0.000000   0.000000   0.000002
    11  C    0.000000   0.000000   0.000000   0.000000   0.000000   0.000000
    12  C    0.000000   0.000000   0.000000   0.000000   0.000000   0.000000
    13  C    0.000000   0.000000   0.000000   0.000000   0.000000   0.000000
    14  C    0.000000   0.000000   0.000000   0.000000   0.000210   0.000000
    15  C    0.000000  -0.000005  -0.000009   0.001764  -0.033037   0.000000
    16  C    0.000002  -0.000019   0.000006   0.000281   0.003330   0.000000
    17  C   -0.000053   0.000215  -0.000060   0.002821   0.000255   0.000000
    18  C    0.003281   0.002079  -0.003199  -0.030229   0.001623   0.000000
    19  C   -0.007483   0.000592   0.003984  -0.000060   0.000002   0.000000
    20  C    0.404237   0.390733   0.404743   0.000466  -0.000004   0.000000
    21  C    0.000492   0.002194  -0.001068   0.379560  -0.027417   0.000000
    22  C    0.000008  -0.000214   0.000125  -0.026020   0.376750   0.000000
    23  S    0.000000   0.000000   0.000000   0.000000   0.000000   0.001860
    24  H    0.000000   0.000000   0.000000   0.000000   0.000000   0.000000
    25  H    0.000000   0.000000   0.000000   0.000000   0.000000   0.000000
    26  H    0.000000   0.000000   0.000000   0.000000   0.000000   0.000000
    27  H    0.000000   0.000000   0.000000   0.000000   0.000000   0.018429
    28  H    0.000000   0.000000   0.000000   0.000000   0.000000   0.000169
    29  H    0.000000   0.000000   0.000000  -0.000001   0.001190   0.000000
    30  H    0.000000   0.000000   0.000000   0.000000   0.000000   0.000000
    31  H    0.000000   0.000000   0.000000   0.000000   0.000000   0.000000
    32  H    0.000000   0.000000   0.000000   0.000011  -0.000132   0.000000
    33  H    0.000000   0.000005  -0.000001  -0.000124   0.000013   0.000000
    34  H    0.001857  -0.000050   0.000241   0.000000   0.000000   0.000000
    35  H    0.000249  -0.000359   0.000020  -0.000003   0.000000   0.000000
    36  H   -0.000067   0.002403  -0.000357   0.000009   0.000000   0.000000
    37  H    0.515901  -0.031125  -0.024924   0.000168   0.000000   0.000000
    38  H   -0.031125   0.579993  -0.044386   0.000026  -0.000003   0.000000
    39  H   -0.024924  -0.044386   0.534468  -0.002403   0.000001   0.000000
    40  H    0.000168   0.000026  -0.002403   0.476904  -0.002131   0.000000
    41  H    0.000000  -0.000003   0.000001  -0.002131   0.473903   0.000000
    42  O    0.000000   0.000000   0.000000   0.000000   0.000000   8.338012
    43  H    0.000000   0.000000   0.000000   0.000000   0.000000   0.268071
    44  H    0.000000   0.000000   0.000000   0.000000   0.000000   0.268200
             43         44
     1  N    0.000000   0.000000
     2  N    0.000459   0.000474
     3  N    0.000000   0.000000
     4  N    0.000000   0.000000
     5  N    0.000000   0.000000
     6  N    0.000000   0.000000
     7  C    0.000000   0.000000
     8  C    0.000000   0.000000
     9  C    0.000001  -0.000004
    10  C   -0.000001   0.000000
    11  C    0.000000   0.000000
    12  C    0.000000   0.000000
    13  C    0.000000   0.000000
    14  C    0.000000   0.000000
    15  C    0.000000   0.000000
    16  C    0.000000   0.000000
    17  C    0.000000   0.000000
    18  C    0.000000   0.000000
    19  C    0.000000   0.000000
    20  C    0.000000   0.000000
    21  C    0.000000   0.000000
    22  C    0.000000   0.000000
    23  S    0.000036  -0.000030
    24  H    0.000000   0.000000
    25  H    0.000000   0.000000
    26  H    0.000000   0.000000
    27  H   -0.000469  -0.000449
    28  H   -0.000011  -0.000012
    29  H    0.000000   0.000000
    30  H    0.000000   0.000000
    31  H    0.000000   0.000000
    32  H    0.000000   0.000000
    33  H    0.000000   0.000000
    34  H    0.000000   0.000000
    35  H    0.000000   0.000000
    36  H    0.000000   0.000000
    37  H    0.000000   0.000000
    38  H    0.000000   0.000000
    39  H    0.000000   0.000000
    40  H    0.000000   0.000000
    41  H    0.000000   0.000000
    42  O    0.268071   0.268200
    43  H    0.295203  -0.016480
    44  H   -0.016480   0.296589
 Mulliken atomic charges:
              1
     1  N   -0.594292
     2  N   -0.929832
     3  N   -0.630647
     4  N   -0.914130
     5  N   -0.668928
     6  N   -0.685536
     7  C   -0.492378
     8  C    0.337461
     9  C    0.383174
    10  C   -0.386431
    11  C    0.422214
    12  C   -0.368766
    13  C    0.121631
    14  C    0.860812
    15  C    0.288124
    16  C   -0.163639
    17  C   -0.283068
    18  C    0.387580
    19  C   -0.289345
    20  C   -0.289052
    21  C   -0.279985
    22  C   -0.197813
    23  S    0.255944
    24  H    0.206545
    25  H    0.181231
    26  H    0.188811
    27  H    0.461558
    28  H    0.385153
    29  H    0.397870
    30  H    0.220033
    31  H    0.208315
    32  H    0.217841
    33  H    0.204005
    34  H    0.173814
    35  H    0.177684
    36  H    0.157262
    37  H    0.174396
    38  H    0.156042
    39  H    0.177417
    40  H    0.203258
    41  H    0.205411
    42  O   -0.884645
    43  H    0.453191
    44  H    0.451712
 Sum of Mulliken atomic charges =   0.00000
 Mulliken charges with hydrogens summed into heavy atoms:
              1
     1  N   -0.594292
     2  N   -0.083121
     3  N   -0.630647
     4  N   -0.516260
     5  N   -0.668928
     6  N   -0.685536
     7  C    0.084208
     8  C    0.337461
     9  C    0.383174
    10  C   -0.386431
    11  C    0.422214
    12  C   -0.148733
    13  C    0.329945
    14  C    0.860812
    15  C    0.288124
    16  C    0.054203
    17  C   -0.079063
    18  C    0.387580
    19  C    0.219415
    20  C    0.218802
    21  C   -0.076726
    22  C    0.007598
    23  S    0.255944
    42  O    0.020257
 Sum of Mulliken charges with hydrogens summed into heavy atoms =   0.00000
 Electronic spatial extent (au):  <R**2>=          12875.9124
 Charge=              0.0000 electrons
 Dipole moment (field-independent basis, Debye):
    X=             -2.3434    Y=             -1.7841    Z=              3.0532  Tot=              4.2422
 Quadrupole moment (field-independent basis, Debye-Ang):
   XX=            -78.2005   YY=           -144.0744   ZZ=           -141.4129
   XY=              6.3839   XZ=            -25.1390   YZ=            -11.0920
 Traceless Quadrupole moment (field-independent basis, Debye-Ang):
   XX=             43.0288   YY=            -22.8451   ZZ=            -20.1836
   XY=              6.3839   XZ=            -25.1390   YZ=            -11.0920
 Octapole moment (field-independent basis, Debye-Ang**2):
  XXX=           -255.7354  YYY=              9.1333  ZZZ=            -12.7439  XYY=              8.3543
  XXY=           -146.5260  XXZ=            163.2444  XZZ=              7.2132  YZZ=             -1.7750
  YYZ=              3.5639  XYZ=             37.1925
 Hexadecapole moment (field-independent basis, Debye-Ang**3):
 XXXX=          -7412.1425 YYYY=          -3438.0139 ZZZZ=           -573.9832 XXXY=            662.5439
 XXXZ=          -1360.8060 YYYX=           -196.4722 YYYZ=             24.3231 ZZZX=             73.8334
 ZZZY=             39.2151 XXYY=          -2083.3949 XXZZ=          -1741.1483 YYZZ=           -696.4745
 XXYZ=           -423.2674 YYXZ=             -7.5997 ZZXY=            -18.3291
 N-N= 2.096324472788D+03 E-N=-7.522330437973D+03  KE= 1.415198969304D+03
 Calling FoFJK, ICntrl=      2127 FMM=F ISym2X=0 I1Cent= 0 IOpClX= 0 NMat=1 NMatS=1 NMatT=0.
 -------------------------------------------------------------------
 Center     Atomic                   Forces (Hartrees/Bohr)
 Number     Number              X              Y              Z
 -------------------------------------------------------------------
      1        7           0.005691934    0.001642626   -0.001383869
      2        7           0.006560872    0.003620131   -0.000831793
      3        7           0.001009730    0.000348059    0.000108452
      4        7           0.000765206    0.000071411    0.000104361
      5        7           0.000244930   -0.000226075   -0.000019495
      6        7           0.001139324    0.001023558    0.000108716
      7        6          -0.000136908    0.000111216   -0.000053488
      8        6          -0.000770147   -0.001822599    0.000253613
      9        6          -0.007883261   -0.007626405   -0.000113536
     10        6           0.000300664    0.002214016    0.000190248
     11        6          -0.000677368   -0.002872460   -0.000327490
     12        6           0.000035746    0.001660642    0.000198030
     13        6          -0.000822756   -0.000958169   -0.000096693
     14        6          -0.001288796   -0.000392310   -0.000131140
     15        6          -0.000180658    0.000230609   -0.000045120
     16        6           0.000034647   -0.000026499    0.000023651
     17        6           0.000094472    0.000045872   -0.000031152
     18        6          -0.000231277    0.000221368   -0.000022957
     19        6          -0.000034704    0.000047721   -0.000090327
     20        6          -0.000107381   -0.000028122    0.000081656
     21        6           0.000066839   -0.000085712    0.000092087
     22        6          -0.000011124   -0.000009130    0.000075083
     23       16          -0.000656664    0.000864857    0.000463728
     24        1           0.000097952    0.000037694   -0.000041290
     25        1          -0.000012110   -0.000042321    0.000018043
     26        1           0.000041103   -0.000036195    0.000040763
     27        1          -0.003804140    0.000878822    0.001306721
     28        1           0.001308207    0.000751596   -0.000757380
     29        1          -0.000007782   -0.000072808   -0.000052565
     30        1           0.000070913   -0.000143480   -0.000022947
     31        1          -0.000024196    0.000105457   -0.000017011
     32        1          -0.000028384   -0.000014214   -0.000068490
     33        1          -0.000021408   -0.000024720   -0.000010306
     34        1           0.000026518   -0.000018885   -0.000005227
     35        1           0.000000559    0.000015352   -0.000004424
     36        1           0.000004741    0.000012456    0.000029844
     37        1           0.000019675   -0.000023072    0.000001804
     38        1           0.000022247    0.000031669   -0.000006350
     39        1          -0.000006993    0.000011610    0.000000107
     40        1           0.000016131   -0.000009100   -0.000028785
     41        1          -0.000027232   -0.000004839   -0.000004779
     42        8          -0.001815092    0.000053781    0.002195405
     43        1           0.001568983    0.000863693    0.000499335
     44        1          -0.000573011   -0.000427100   -0.001625032
 -------------------------------------------------------------------
 Cartesian Forces:  Max     0.007883261 RMS     0.001453194
 -----------------------------------------------------------------------------------------------
                       Internal Coordinate Forces (Hartree/Bohr or radian)
  Cent   Atom   N1       Length/X         N2         Alpha/Y        N3         Beta/Z          J
 -----------------------------------------------------------------------------------------------
      1  N            0.005692(     1)      0.001643(    48)     -0.001384(    95)
      2  N            0.006362(     2)      0.003254(    49)     -0.000950(    96)
      3  N            0.001010(     3)      0.000348(    50)      0.000108(    97)
      4  N            0.000765(     4)      0.000071(    51)      0.000104(    98)
      5  N            0.000245(     5)     -0.000226(    52)     -0.000019(    99)
      6  N            0.001139(     6)      0.001024(    53)      0.000109(   100)
      7  C           -0.000137(     7)      0.000111(    54)     -0.000053(   101)
      8  C           -0.000770(     8)     -0.001823(    55)      0.000254(   102)
      9  C           -0.007883(     9)     -0.007626(    56)     -0.000114(   103)
     10  C            0.000301(    10)      0.002214(    57)      0.000190(   104)
     11  C           -0.000677(    11)     -0.002872(    58)     -0.000327(   105)
     12  C            0.000036(    12)      0.001661(    59)      0.000198(   106)
     13  C           -0.000823(    13)     -0.000958(    60)     -0.000097(   107)
     14  C           -0.001289(    14)     -0.000392(    61)     -0.000131(   108)
     15  C           -0.000181(    15)      0.000231(    62)     -0.000045(   109)
     16  C            0.000035(    16)     -0.000026(    63)      0.000024(   110)
     17  C            0.000094(    17)      0.000046(    64)     -0.000031(   111)
     18  C           -0.000231(    18)      0.000221(    65)     -0.000023(   112)
     19  C           -0.000035(    19)      0.000048(    66)     -0.000090(   113)
     20  C           -0.000107(    20)     -0.000028(    67)      0.000082(   114)
     21  C            0.000067(    21)     -0.000086(    68)      0.000092(   115)
     22  C           -0.000011(    22)     -0.000009(    69)      0.000075(   116)
     23  S           -0.000657(    23)      0.000865(    70)      0.000464(   117)
     24  H            0.000098(    24)      0.000038(    71)     -0.000041(   118)
     25  H           -0.000012(    25)     -0.000042(    72)      0.000018(   119)
     26  H            0.000041(    26)     -0.000036(    73)      0.000041(   120)
     27  H           -0.004733(    27)      0.001834(    74)      0.003025(   121)
     28  H            0.001308(    28)      0.000752(    75)     -0.000757(   122)
     29  H           -0.000008(    29)     -0.000073(    76)     -0.000053(   123)
     30  H            0.000071(    30)     -0.000143(    77)     -0.000023(   124)
     31  H           -0.000024(    31)      0.000105(    78)     -0.000017(   125)
     32  H           -0.000028(    32)     -0.000014(    79)     -0.000068(   126)
     33  H           -0.000021(    33)     -0.000025(    80)     -0.000010(   127)
     34  H            0.000027(    34)     -0.000019(    81)     -0.000005(   128)
     35  H            0.000001(    35)      0.000015(    82)     -0.000004(   129)
     36  H            0.000005(    36)      0.000012(    83)      0.000030(   130)
     37  H            0.000020(    37)     -0.000023(    84)      0.000002(   131)
     38  H            0.000022(    38)      0.000032(    85)     -0.000006(   132)
     39  H           -0.000007(    39)      0.000012(    86)      0.000000(   133)
     40  H            0.000016(    40)     -0.000009(    87)     -0.000029(   134)
     41  H           -0.000027(    41)     -0.000005(    88)     -0.000005(   135)
         X            0.000000(    42)      0.000000(    89)      0.000000(   136)
         X            0.000350(    43)     -0.000279(    90)     -0.000425(   137)
         X           -0.000042(    44)      0.000180(    91)     -0.000106(   138)
     42  O       27   0.001389(    45)     43  -0.001664(    92)      2   0.000815(   139)     0
     43  H       45   0.000959(    46)     27  -0.000184(    93)     43  -0.000541(   140)     0
     44  H       45   0.000807(    47)     46   0.002650(    94)     44   0.000960(   141)     0
 -----------------------------------------------------------------------------------------------
 Internal  Forces:  Max     0.007883261 RMS     0.001440909

 GradGradGradGradGradGradGradGradGradGradGradGradGradGradGradGradGradGrad
 Berny optimization.
 Search for a local minimum.
 Step number   1 out of a maximum of  100
 All quantities printed in internal units (Hartrees-Bohrs-Radians)
 Second derivative matrix not updated -- first step.
 The second derivative matrix:
                          roh       phi
           roh          0.04259
           phi          0.00000   0.00000
     Eigenvalues ---    0.00000   0.04259
 RFO step:  Lambda=-5.64073947D-04 EMin= 8.21632830D-15
 Linear search not attempted -- first point.
 Maximum step size (   0.300) exceeded in Quadratic search.
    -- Step size scaled by   0.312
 Variable       Old X    -DE/DX   Delta X   Delta X   Delta X     New X
                                 (Linear)    (Quad)   (Total)
   roh        3.79230   0.00139   0.00000   0.01006   0.01006   3.80236
   phi        1.05848  -0.00054   0.00000  -0.29983  -0.29983   0.75865
         Item               Value     Threshold  Converged?
 Maximum Force            0.001389     0.000450     NO 
 RMS     Force            0.001054     0.000300     NO 
 Maximum Displacement     0.299831     0.001800     NO 
 RMS     Displacement     0.212132     0.001200     NO 
 Predicted change in Energy=-1.741018D-04
 GradGradGradGradGradGradGradGradGradGradGradGradGradGradGradGradGradGrad

 ---------------------------------------------------------------------------------------------------
                            Z-MATRIX (ANGSTROMS AND DEGREES)
   CD    Cent   Atom    N1       Length/X        N2       Alpha/Y        N3        Beta/Z          J
 ---------------------------------------------------------------------------------------------------
      1      1  N        0  -3.013310         -2.511550         -0.412190
      2      2  N        0  -5.227560         -3.080250          0.017760
      3      3  N        0  -0.978170          3.560350          0.131290
      4      4  N        0   1.039990          2.528080          0.168310
      5      5  N        0   4.965790         -1.515470         -0.008700
      6      6  N        0  -0.840430          1.198040          0.040700
      7      7  C        0  -0.761600         -1.677320         -0.873750
      8      8  C        0  -2.178550         -1.415950         -0.453810
      9      9  C        0  -4.200080         -2.188550         -0.056910
     10     10  C        0  -2.743260         -0.232570         -0.111110
     11     11  C        0  -2.161610          1.109840         -0.029690
     12     12  C        0  -2.958510          2.253840         -0.018700
     13     13  C        0  -2.287360          3.456620          0.067680
     14     14  C        0  -0.310180          2.407830          0.107020
[...]
    12  C    0.000000   0.000000   0.000000  -0.000001  -0.001007   0.000074
    13  C    0.000000   0.000000   0.000000   0.000004   0.000260  -0.000005
    14  C    0.000000   0.000000  -0.000047   0.001184  -0.000109   0.000244
    15  C    0.000010   0.000010  -0.049121   0.593395   0.000000   0.000730
    16  C   -0.000254  -0.000067  -0.039800  -0.047360   0.000000   0.000063
    17  C   -0.009714   0.002411  -0.039746  -0.041168   0.000000  -0.000130
    18  C   -0.046663  -0.047441   0.575309  -0.034174   0.000000  -0.000028
    19  C    4.931749  -0.051630   0.002279  -0.000074   0.000000   0.000000
    20  C   -0.051630   4.931107  -0.009907  -0.000285   0.000000   0.000000
    21  C    0.002279  -0.009907   5.013422   0.527352   0.000000   0.000013
    22  C   -0.000074  -0.000285   0.527352   4.901751   0.000000   0.000277
    23  S    0.000000   0.000000   0.000000   0.000000  15.396870   0.000096
    24  H    0.000000   0.000000   0.000013   0.000277   0.000096   0.476940
    25  H    0.000000   0.000000  -0.000001   0.000000  -0.000036  -0.023810
    26  H   -0.000001   0.000000  -0.000012  -0.000041   0.000031  -0.022944
    27  H    0.000000   0.000000   0.000000   0.000000   0.000310   0.000000
    28  H    0.000000   0.000000   0.000000   0.000000   0.003685   0.000000
    29  H    0.000000   0.000000   0.000064  -0.002040   0.000000   0.000001
    30  H    0.000000   0.000000   0.000000   0.000000   0.000135  -0.000001
    31  H    0.000000   0.000000   0.000000   0.000000  -0.000013   0.000000
    32  H   -0.000005   0.000002   0.000208   0.003521   0.000000  -0.000005
    33  H    0.000393  -0.000057   0.002783   0.000359   0.000000  -0.000001
    34  H    0.403993  -0.007505  -0.000049   0.000002   0.000000   0.000000
    35  H    0.404966   0.003933  -0.000091   0.000005   0.000000   0.000000
    36  H    0.390851   0.000674   0.000312  -0.000019   0.000000   0.000000
    37  H   -0.007484   0.404236   0.000492   0.000008   0.000000   0.000000
    38  H    0.000591   0.390733   0.002194  -0.000214   0.000000   0.000000
    39  H    0.003984   0.404743  -0.001068   0.000125   0.000000   0.000000
    40  H   -0.000060   0.000465   0.379559  -0.026020   0.000000   0.000000
    41  H    0.000002  -0.000004  -0.027422   0.376748   0.000000   0.000000
    42  O    0.000000   0.000000   0.000000   0.000000   0.002073   0.000000
    43  H    0.000000   0.000000   0.000000   0.000000  -0.000018   0.000000
    44  H    0.000000   0.000000   0.000000   0.000000  -0.000032   0.000000
             25         26         27         28         29         30
     1  N   -0.000756   0.000525   0.001891   0.004492   0.000000  -0.000005
     2  N   -0.000018   0.000000   0.303300   0.323777   0.000000   0.000000
     3  N    0.000000   0.000000   0.000000   0.000000   0.006840   0.002726
     4  N   -0.000001   0.000002   0.000000   0.000000   0.326278   0.000015
     5  N    0.000000  -0.000003   0.000000   0.000000   0.000000   0.000000
     6  N    0.000555   0.000013   0.000000   0.000000   0.003822   0.002525
     7  C    0.382990   0.387814   0.000002  -0.000020   0.000000  -0.000001
     8  C   -0.039206  -0.034698  -0.000140   0.000289   0.000000   0.000018
     9  C    0.000066  -0.000174  -0.018488  -0.026279   0.000000   0.000012
    10  C    0.004186  -0.003520   0.000057  -0.000080   0.000006  -0.000875
    11  C   -0.000280   0.000932   0.000000   0.000000  -0.000104  -0.024840
    12  C    0.000003   0.000014   0.000000   0.000000   0.000019   0.374398
    13  C    0.000000   0.000000   0.000000   0.000000   0.000368  -0.022661
    14  C    0.000017  -0.000123   0.000000   0.000000  -0.021646   0.000459
    15  C    0.000006  -0.000050   0.000000   0.000000  -0.023785   0.000000
    16  C    0.000021   0.000890   0.000000   0.000000   0.001663   0.000000
    17  C    0.000005   0.001094   0.000000   0.000000  -0.000010   0.000000
    18  C    0.000000   0.000033   0.000000   0.000000  -0.000001   0.000000
    19  C    0.000000  -0.000001   0.000000   0.000000   0.000000   0.000000
    20  C    0.000000   0.000000   0.000000   0.000000   0.000000   0.000000
    21  C   -0.000001  -0.000012   0.000000   0.000000   0.000064   0.000000
    22  C    0.000000  -0.000041   0.000000   0.000000  -0.002040   0.000000
    23  S   -0.000036   0.000031   0.000310   0.003685   0.000000   0.000135
    24  H   -0.023810  -0.022944   0.000000   0.000000   0.000001  -0.000001
    25  H    0.520952  -0.025815   0.000000   0.000008   0.000000   0.000000
    26  H   -0.025815   0.507224   0.000000   0.000000   0.000000   0.000000
    27  H    0.000000   0.000000   0.253557  -0.013743   0.000000   0.000000
    28  H    0.000008   0.000000  -0.013743   0.321807   0.000000   0.000000
    29  H    0.000000   0.000000   0.000000   0.000000   0.309576  -0.000001
    30  H    0.000000   0.000000   0.000000   0.000000  -0.000001   0.448004
    31  H    0.000000   0.000000   0.000000   0.000000  -0.000035  -0.000104
    32  H    0.000000   0.000063   0.000000   0.000000  -0.000067   0.000000
    33  H    0.000000   0.000039   0.000000   0.000000   0.000002   0.000000
    34  H    0.000000   0.000000   0.000000   0.000000   0.000000   0.000000
    35  H    0.000000   0.000004   0.000000   0.000000   0.000000   0.000000
    36  H    0.000000   0.000000   0.000000   0.000000   0.000000   0.000000
    37  H    0.000000   0.000000   0.000000   0.000000   0.000000   0.000000
    38  H    0.000000   0.000000   0.000000   0.000000   0.000000   0.000000
    39  H    0.000000   0.000000   0.000000   0.000000   0.000000   0.000000
    40  H    0.000000   0.000000   0.000000   0.000000  -0.000001   0.000000
    41  H    0.000000   0.000000   0.000000   0.000000   0.001190   0.000000
    42  O    0.000000   0.000000   0.018301   0.000127   0.000000   0.000000
    43  H    0.000000   0.000000  -0.000485  -0.000010   0.000000   0.000000
    44  H    0.000000   0.000000  -0.000491  -0.000008   0.000000   0.000000
             31         32         33         34         35         36
     1  N    0.000000   0.000000   0.000000   0.000000   0.000000   0.000000
     2  N    0.000000   0.000000   0.000000   0.000000   0.000000   0.000000
     3  N   -0.043107  -0.000015   0.000000   0.000000   0.000000   0.000000
     4  N   -0.000051  -0.003420  -0.000104   0.000000   0.000000   0.000000
     5  N    0.000000  -0.000070  -0.004011  -0.036850  -0.044591  -0.057736
     6  N   -0.000574   0.001842  -0.000007   0.000000   0.000000   0.000000
     7  C    0.000000   0.000010   0.000000   0.000000   0.000000   0.000000
     8  C    0.000001   0.000001   0.000000   0.000000   0.000000   0.000000
     9  C    0.000000   0.000000   0.000000   0.000000   0.000000   0.000000
    10  C   -0.000053  -0.000026   0.000000   0.000000   0.000000   0.000000
    11  C    0.002458  -0.000007   0.000000   0.000000   0.000000   0.000000
    12  C   -0.052027   0.000008   0.000000   0.000000   0.000000   0.000000
    13  C    0.406824  -0.000003   0.000000   0.000000   0.000000   0.000000
    14  C    0.003568   0.002272  -0.000003   0.000000   0.000000   0.000000
    15  C    0.000003  -0.023786   0.001663   0.000000  -0.000007  -0.000006
    16  C    0.000000   0.376417  -0.025788   0.000007   0.000160  -0.000235
    17  C    0.000000  -0.030808   0.380090   0.000473  -0.001297   0.002172
    18  C    0.000000   0.001600  -0.031086   0.003335  -0.003415   0.002150
    19  C    0.000000  -0.000005   0.000393   0.403993   0.404966   0.390851
    20  C    0.000000   0.000002  -0.000057  -0.007505   0.003933   0.000674
    21  C    0.000000   0.000208   0.002783  -0.000049  -0.000091   0.000312
    22  C    0.000000   0.003521   0.000359   0.000002   0.000005  -0.000019
    23  S   -0.000013   0.000000   0.000000   0.000000   0.000000   0.000000
    24  H    0.000000  -0.000005  -0.000001   0.000000   0.000000   0.000000
    25  H    0.000000   0.000000   0.000000   0.000000   0.000000   0.000000
    26  H    0.000000   0.000063   0.000039   0.000000   0.000004   0.000000
    27  H    0.000000   0.000000   0.000000   0.000000   0.000000   0.000000
    28  H    0.000000   0.000000   0.000000   0.000000   0.000000   0.000000
    29  H   -0.000035  -0.000067   0.000002   0.000000   0.000000   0.000000
    30  H   -0.000104   0.000000   0.000000   0.000000   0.000000   0.000000
    31  H    0.474776   0.000000   0.000000   0.000000   0.000000   0.000000
    32  H    0.000000   0.456435  -0.001915   0.000000   0.000000  -0.000002
    33  H    0.000000  -0.001915   0.475899   0.000164  -0.002120  -0.000157
    34  H    0.000000   0.000000   0.000164   0.516599  -0.025343  -0.030678
    35  H    0.000000   0.000000  -0.002120  -0.025343   0.534378  -0.044145
    36  H    0.000000  -0.000002  -0.000157  -0.030678  -0.044145   0.577570
    37  H    0.000000   0.000000   0.000000   0.001857   0.000249  -0.000066
    38  H    0.000000   0.000000   0.000005  -0.000050  -0.000359   0.002403
    39  H    0.000000   0.000000  -0.000001   0.000241   0.000020  -0.000357
    40  H    0.000000   0.000011  -0.000124   0.000000  -0.000003   0.000009
    41  H    0.000000  -0.000132   0.000013   0.000000   0.000000   0.000000
    42  O    0.000000   0.000000   0.000000   0.000000   0.000000   0.000000
    43  H    0.000000   0.000000   0.000000   0.000000   0.000000   0.000000
    44  H    0.000000   0.000000   0.000000   0.000000   0.000000   0.000000
             37         38         39         40         41         42
     1  N    0.000000   0.000000   0.000000   0.000000   0.000000  -0.000003
     2  N    0.000000   0.000000   0.000000   0.000000   0.000000  -0.008011
     3  N    0.000000   0.000000   0.000000   0.000000  -0.000025   0.000000
     4  N    0.000000   0.000000   0.000000  -0.000114   0.000162   0.000000
     5  N   -0.036940  -0.058121  -0.044596  -0.004183  -0.000074   0.000000
     6  N    0.000000   0.000000   0.000000   0.000000  -0.000027   0.000000
     7  C    0.000000   0.000000   0.000000   0.000000   0.000000   0.000000
     8  C    0.000000   0.000000   0.000000   0.000000   0.000000   0.000000
     9  C    0.000000   0.000000   0.000000   0.000000   0.000000  -0.000358
    10  C    0.000000   0.000000   0.000000   0.000000   0.000000   0.000002
    11  C    0.000000   0.000000   0.000000   0.000000   0.000000   0.000000
    12  C    0.000000   0.000000   0.000000   0.000000   0.000000   0.000000
    13  C    0.000000   0.000000   0.000000   0.000000   0.000000   0.000000
    14  C    0.000000   0.000000   0.000000   0.000000   0.000210   0.000000
    15  C    0.000000  -0.000005  -0.000009   0.001764  -0.033033   0.000000
    16  C    0.000002  -0.000019   0.000006   0.000281   0.003331   0.000000
    17  C   -0.000053   0.000215  -0.000060   0.002821   0.000255   0.000000
    18  C    0.003281   0.002080  -0.003199  -0.030232   0.001623   0.000000
    19  C   -0.007484   0.000591   0.003984  -0.000060   0.000002   0.000000
    20  C    0.404236   0.390733   0.404743   0.000465  -0.000004   0.000000
    21  C    0.000492   0.002194  -0.001068   0.379559  -0.027422   0.000000
    22  C    0.000008  -0.000214   0.000125  -0.026020   0.376748   0.000000
    23  S    0.000000   0.000000   0.000000   0.000000   0.000000   0.002073
    24  H    0.000000   0.000000   0.000000   0.000000   0.000000   0.000000
    25  H    0.000000   0.000000   0.000000   0.000000   0.000000   0.000000
    26  H    0.000000   0.000000   0.000000   0.000000   0.000000   0.000000
    27  H    0.000000   0.000000   0.000000   0.000000   0.000000   0.018301
    28  H    0.000000   0.000000   0.000000   0.000000   0.000000   0.000127
    29  H    0.000000   0.000000   0.000000  -0.000001   0.001190   0.000000
    30  H    0.000000   0.000000   0.000000   0.000000   0.000000   0.000000
    31  H    0.000000   0.000000   0.000000   0.000000   0.000000   0.000000
    32  H    0.000000   0.000000   0.000000   0.000011  -0.000132   0.000000
    33  H    0.000000   0.000005  -0.000001  -0.000124   0.000013   0.000000
    34  H    0.001857  -0.000050   0.000241   0.000000   0.000000   0.000000
    35  H    0.000249  -0.000359   0.000020  -0.000003   0.000000   0.000000
    36  H   -0.000066   0.002403  -0.000357   0.000009   0.000000   0.000000
    37  H    0.515916  -0.031126  -0.024926   0.000168   0.000000   0.000000
    38  H   -0.031126   0.579993  -0.044387   0.000026  -0.000003   0.000000
    39  H   -0.024926  -0.044387   0.534471  -0.002403   0.000001   0.000000
    40  H    0.000168   0.000026  -0.002403   0.476922  -0.002131   0.000000
    41  H    0.000000  -0.000003   0.000001  -0.002131   0.473912   0.000000
    42  O    0.000000   0.000000   0.000000   0.000000   0.000000   8.334381
    43  H    0.000000   0.000000   0.000000   0.000000   0.000000   0.268157
    44  H    0.000000   0.000000   0.000000   0.000000   0.000000   0.268368
             43         44
     1  N    0.000000   0.000000
     2  N    0.000384   0.000387
     3  N    0.000000   0.000000
     4  N    0.000000   0.000000
     5  N    0.000000   0.000000
     6  N    0.000000   0.000000
     7  C    0.000000   0.000000
     8  C    0.000000   0.000000
     9  C    0.000003  -0.000003
    10  C    0.000000   0.000000
    11  C    0.000000   0.000000
    12  C    0.000000   0.000000
    13  C    0.000000   0.000000
    14  C    0.000000   0.000000
    15  C    0.000000   0.000000
    16  C    0.000000   0.000000
    17  C    0.000000   0.000000
    18  C    0.000000   0.000000
    19  C    0.000000   0.000000
    20  C    0.000000   0.000000
    21  C    0.000000   0.000000
    22  C    0.000000   0.000000
    23  S   -0.000018  -0.000032
    24  H    0.000000   0.000000
    25  H    0.000000   0.000000
    26  H    0.000000   0.000000
    27  H   -0.000485  -0.000491
    28  H   -0.000010  -0.000008
    29  H    0.000000   0.000000
    30  H    0.000000   0.000000
    31  H    0.000000   0.000000
    32  H    0.000000   0.000000
    33  H    0.000000   0.000000
    34  H    0.000000   0.000000
    35  H    0.000000   0.000000
    36  H    0.000000   0.000000
    37  H    0.000000   0.000000
    38  H    0.000000   0.000000
    39  H    0.000000   0.000000
    40  H    0.000000   0.000000
    41  H    0.000000   0.000000
    42  O    0.268157   0.268368
    43  H    0.297157  -0.016684
    44  H   -0.016684   0.297049
 Mulliken atomic charges:
              1
     1  N   -0.594131
     2  N   -0.927615
     3  N   -0.630624
     4  N   -0.914141
     5  N   -0.668931
     6  N   -0.685535
     7  C   -0.492309
     8  C    0.337027
     9  C    0.382761
    10  C   -0.386442
    11  C    0.422068
    12  C   -0.368476
    13  C    0.121589
    14  C    0.860797
    15  C    0.288139
    16  C   -0.163635
    17  C   -0.283067
    18  C    0.387573
    19  C   -0.289330
    20  C   -0.289047
    21  C   -0.279988
    22  C   -0.197818
    23  S    0.259599
    24  H    0.206527
    25  H    0.181114
    26  H    0.188703
    27  H    0.455928
    28  H    0.385955
    29  H    0.397861
    30  H    0.220196
    31  H    0.208335
    32  H    0.217870
    33  H    0.203965
    34  H    0.173804
    35  H    0.177658
    36  H    0.157259
    37  H    0.174385
    38  H    0.156043
    39  H    0.177414
    40  H    0.203244
    41  H    0.205403
    42  O   -0.883038
    43  H    0.451496
    44  H    0.451414
 Sum of Mulliken atomic charges =   0.00000
 Mulliken charges with hydrogens summed into heavy atoms:
              1
     1  N   -0.594131
     2  N   -0.085732
     3  N   -0.630624
     4  N   -0.516280
     5  N   -0.668931
     6  N   -0.685535
     7  C    0.084035
     8  C    0.337027
     9  C    0.382761
    10  C   -0.386442
    11  C    0.422068
    12  C   -0.148280
    13  C    0.329924
    14  C    0.860797
    15  C    0.288139
    16  C    0.054235
    17  C   -0.079102
    18  C    0.387573
    19  C    0.219391
    20  C    0.218795
    21  C   -0.076743
    22  C    0.007585
    23  S    0.259599
    42  O    0.019873
 Sum of Mulliken charges with hydrogens summed into heavy atoms =   0.00000
 Electronic spatial extent (au):  <R**2>=          12902.1043
 Charge=              0.0000 electrons
 Dipole moment (field-independent basis, Debye):
    X=             -2.3313    Y=             -1.7574    Z=              3.0531  Tot=              4.2244
 Quadrupole moment (field-independent basis, Debye-Ang):
   XX=            -78.1598   YY=           -144.8454   ZZ=           -140.6631
   XY=              5.3736   XZ=            -24.8636   YZ=            -11.7376
 Traceless Quadrupole moment (field-independent basis, Debye-Ang):
   XX=             43.0629   YY=            -23.6226   ZZ=            -19.4404
   XY=              5.3736   XZ=            -24.8636   YZ=            -11.7376
 Octapole moment (field-independent basis, Debye-Ang**2):
  XXX=           -258.9368  YYY=             14.2814  ZZZ=             -8.3401  XYY=             18.7753
  XXY=           -132.7926  XXZ=            159.3309  XZZ=              2.7852  YZZ=             -6.6058
  YYZ=              4.8569  XYZ=             39.8591
 Hexadecapole moment (field-independent basis, Debye-Ang**3):
 XXXX=          -7360.5105 YYYY=          -3460.5152 ZZZZ=           -556.3983 XXXY=            513.2739
 XXXZ=          -1317.1819 YYYX=           -253.5214 YYYZ=             26.0804 ZZZX=             45.0857
 ZZZY=             18.5534 XXYY=          -2197.2545 XXZZ=          -1717.7768 YYZZ=           -682.3262
 XXYZ=           -426.0571 YYXZ=             -7.1178 ZZXY=             11.9436
 N-N= 2.095196516941D+03 E-N=-7.520086520104D+03  KE= 1.415193577365D+03
 1\1\GINC-B41\FOpt\RHF\6-31G(d)\C16H20N6O1S1\RUPAKHETIC\28-Mar-2018\1\\
 #HF/6-31G* nosymm SCF=Tight opt=(Z-MATRIX,MaxCycle=200)\\Mol-Water Dim
 er\\0,1\N,0,-3.01331,-2.51155,-0.41219\N,0,-5.22756,-3.08025,0.01776\N
 ,0,-0.97817,3.56035,0.13129\N,0,1.03999,2.52808,0.16831\N,0,4.96579,-1
 .51547,-0.0087\N,0,-0.84043,1.19804,0.0407\C,0,-0.7616,-1.67732,-0.873
 75\C,0,-2.17855,-1.41595,-0.45381\C,0,-4.20008,-2.18855,-0.05691\C,0,-
 2.74326,-0.23257,-0.11111\C,0,-2.16161,1.10984,-0.02969\C,0,-2.95851,2
 .25384,-0.0187\C,0,-2.28736,3.45662,0.06768\C,0,-0.31018,2.40783,0.107
 02\C,0,2.00032,1.48794,0.11857\C,0,2.04918,0.49089,1.08054\C,0,3.01909
 ,-0.49053,1.0434\C,0,4.00146,-0.50964,0.04361\C,0,5.18471,-2.31613,1.1
 765\C,0,6.11511,-1.31633,-0.86371\C,0,3.95701,0.51458,-0.90628\C,0,2.9
 6534,1.47999,-0.87153\S,0,-4.44477,-0.50304,0.26866\H,0,-0.3237,-0.829
 86,-1.37539\H,0,-0.74791,-2.54516,-1.52064\H,0,-0.14764,-1.89114,-0.00
 521\H,0,-5.97008,-2.88098,0.65016\H,0,-4.93488,-4.03367,0.00875\H,0,1.
 36351,3.46879,0.16814\H,0,-4.02699,2.21893,-0.09266\H,0,-2.83523,4.383
 64,0.08106\H,0,1.31685,0.47914,1.86562\H,0,3.00679,-1.23797,1.81091\H,
 0,5.96939,-3.03215,0.97745\H,0,4.29634,-2.88014,1.43166\H,0,5.47495,-1
 .72296,2.04398\H,0,6.75956,-2.18123,-0.79487\H,0,6.69756,-0.43358,-0.5
 979\H,0,5.81297,-1.22539,-1.89952\H,0,4.68426,0.56815,-1.69104\H,0,2.9
 501,2.24274,-1.6304\X,0,-5.22756,-3.08025,0.01776\X,0,-5.24651,-3.6239
 9,1.73385\X,0,-9.69955,-1.8801,3.82653\O,27,roh,43,90.,2,180.,0\H,45,0
 .9474,27,127.2302,43,phi,0\H,45,0.9474,46,105.5395,44,0.,0\\roh=2.0637
 8232\phi=35.54213473\\Version=EM64L-G09RevA.02\HF=-1416.5977127\RMSD=1
 .960e-09\RMSF=1.331e-03\Dipole=-0.9172216,-0.6914326,1.2011979\Quadrup
 ole=32.016249,-17.562819,-14.45343,3.9951149,-18.4854886,-8.7266518\PG
 =C01 [X(C16H20N6O1S1)]\\@


 There are more things in heaven and earth, Horatio,
 than are dreamt of in your philosophy.
                   -- Hamlet, Act I, Scene 5
 The chemist is a guest at the physicist's table and
 frequently dines well.
                   -- Richard Bersohn
 Job cpu time:  0 days  0 hours 42 minutes  3.8 seconds.
 File lengths (MBytes):  RWF=    105 Int=      0 D2E=      0 Chk=     10 Scr=      1
 Normal termination of Gaussian 09 at Wed Mar 28 16:03:23 2018.
